<?xml version="1.0"?>
<VTKFile type="UnstructuredGrid"  version="0.1"  >
<UnstructuredGrid>
<Piece  NumberOfPoints="4963" NumberOfCells="14934">
<Points>
<DataArray  type="Float64"  NumberOfComponents="3"  format="ascii">0 0.9 0  0.45 0.9 0  0.45 0 0  0.55 0 0  0.55 0.9 0  1 0.9 0  1 1 0  0 1 0  0 0.9 10  0.45 0.9 10  0.45 0 10  0.55 0 10  0.55 0.9 10  1 0.9 10  1 1 10  0 1 10  0.08999999999980426 0.9 0  0.1799999999995429 0.9 0  0.2699999999995232 0.9 0  0.3599999999997603 0.9 0  0.45 0.8000000000001036 0  0.45 0.700000000000306 0  0.45 0.6000000000006001 0  0.45 0.500000000000988 0  0.45 0.4000000000010241 0  0.45 0.3000000000007592 0  0.45 0.2000000000005064 0  0.45 0.1000000000002536 0  0.55 0.09999999999982175 0  0.55 0.1999999999995504 0  0.55 0.29999999999926 0  0.55 0.3999999999989697 0  0.55 0.499999999998943 0  0.55 0.5999999999992162 0  0.55 0.6999999999994773 0  0.55 0.7999999999997383 0  0.6399999999997097 0.9 0  0.7299999999994582 0.9 0  0.8199999999995407 0.9 0  0.9099999999998571 0.9 0  0.8999999999995836 1 0  0.7999999999999998 1 0  0.7000000000006934 1 0  0.6000000000013869 1 0  0.5000000000020587 1 0  0.4000000000016644 1 0  0.3000000000012483 1 0  0.2000000000008322 1 0  0.100000000000416 1 0  0.08999999999980426 0.9 10  0.1799999999995429 0.9 10  0.2699999999995232 0.9 10  0.3599999999997603 0.9 10  0.45 0.8000000000001036 10  0.45 0.700000000000306 10  0.45 0.6000000000006001 10  0.45 0.500000000000988 10  0.45 0.4000000000010241 10  0.45 0.3000000000007592 10  0.45 0.2000000000005064 10  0.45 0.1000000000002536 10  0.55 0.09999999999982175 10  0.55 0.1999999999995504 10  0.55 0.29999999999926 10  0.55 0.3999999999989697 10  0.55 0.499999999998943 10  0.55 0.5999999999992162 10  0.55 0.6999999999994773 10  0.55 0.7999999999997383 10  0.6399999999997097 0.9 10  0.7299999999994582 0.9 10  0.8199999999995407 0.9 10  0.9099999999998571 0.9 10  0.8999999999995836 1 10  0.7999999999999998 1 10  0.7000000000006934 1 10  0.6000000000013869 1 10  0.5000000000020587 1 10  0.4000000000016644 1 10  0.3000000000012483 1 10  0.2000000000008322 1 10  0.100000000000416 1 10  0 0.9 0.09999999999992584  0 0.9 0.199999999999856  0 0.9 0.2999999999997771  0 0.9 0.3999999999996677  0 0.9 0.4999999999995511  0 0.9 0.5999999999994683  0 0.9 0.6999999999993983  0 0.9 0.7999999999993286  0 0.9 0.8999999999992587  0 0.9 0.9999999999991888  0 0.9 1.099999999999119  0 0.9 1.199999999999033  0 0.9 1.299999999998852  0 0.9 1.399999999998576  0 0.9 1.499999999998284  0 0.9 1.599999999997992  0 0.9 1.6999999999977  0 0.9 1.799999999997408  0 0.9 1.899999999997116  0 0.9 1.999999999996825  0 0.9 2.099999999996533  0 0.9 2.199999999996241  0 0.9 2.299999999995949  0 0.9 2.399999999995657  0 0.9 2.499999999995365  0 0.9 2.599999999995073  0 0.9 2.699999999994782  0 0.9 2.79999999999449  0 0.9 2.899999999994198  0 0.9 2.999999999993906  0 0.9 3.099999999993614  0 0.9 3.199999999993322  0 0.9 3.299999999993029  0 0.9 3.399999999992738  0 0.9 3.499999999992446  0 0.9 3.599999999992154  0 0.9 3.699999999991863  0 0.9 3.799999999991571  0 0.9 3.899999999991278  0 0.9 3.999999999991022  0 0.9 4.099999999991035  0 0.9 4.199999999991187  0 0.9 4.299999999991338  0 0.9 4.399999999991491  0 0.9 4.499999999991642  0 0.9 4.599999999991795  0 0.9 4.699999999991947  0 0.9 4.799999999992099  0 0.9 4.89999999999225  0 0.9 4.999999999992403  0 0.9 5.099999999992555  0 0.9 5.199999999992706  0 0.9 5.299999999992858  0 0.9 5.39999999999301  0 0.9 5.499999999993161  0 0.9 5.599999999993313  0 0.9 5.699999999993466  0 0.9 5.799999999993618  0 0.9 5.899999999993771  0 0.9 5.999999999993922  0 0.9 6.099999999994074  0 0.9 6.199999999994227  0 0.9 6.299999999994378  0 0.9 6.39999999999453  0 0.9 6.499999999994682  0 0.9 6.599999999994833  0 0.9 6.699999999994986  0 0.9 6.799999999995138  0 0.9 6.899999999995289  0 0.9 6.999999999995442  0 0.9 7.099999999995594  0 0.9 7.199999999995747  0 0.9 7.299999999995897  0 0.9 7.39999999999605  0 0.9 7.499999999996202  0 0.9 7.599999999996353  0 0.9 7.699999999996505  0 0.9 7.799999999996658  0 0.9 7.899999999996808  0 0.9 7.999999999996962  0 0.9 8.099999999997113  0 0.9 8.199999999997265  0 0.9 8.299999999997418  0 0.9 8.399999999997569  0 0.9 8.499999999997721  0 0.9 8.599999999997873  0 0.9 8.699999999998024  0 0.9 8.799999999998176  0 0.9 8.899999999998329  0 0.9 8.999999999998479  0 0.9 9.099999999998634  0 0.9 9.199999999998786  0 0.9 9.299999999998937  0 0.9 9.399999999999089  0 0.9 9.499999999999241  0 0.9 9.599999999999392  0 0.9 9.699999999999545  0 0.9 9.799999999999697  0 0.9 9.899999999999848  0.45 0.9 0.09999999999992584  0.45 0.9 0.199999999999856  0.45 0.9 0.2999999999997771  0.45 0.9 0.3999999999996677  0.45 0.9 0.4999999999995511  0.45 0.9 0.5999999999994683  0.45 0.9 0.6999999999993983  0.45 0.9 0.7999999999993286  0.45 0.9 0.8999999999992587  0.45 0.9 0.9999999999991888  0.45 0.9 1.099999999999119  0.45 0.9 1.199999999999033  0.45 0.9 1.299999999998852  0.45 0.9 1.399999999998576  0.45 0.9 1.499999999998284  0.45 0.9 1.599999999997992  0.45 0.9 1.6999999999977  0.45 0.9 1.799999999997408  0.45 0.9 1.899999999997116  0.45 0.9 1.999999999996825  0.45 0.9 2.099999999996533  0.45 0.9 2.199999999996241  0.45 0.9 2.299999999995949  0.45 0.9 2.399999999995657  0.45 0.9 2.499999999995365  0.45 0.9 2.599999999995073  0.45 0.9 2.699999999994782  0.45 0.9 2.79999999999449  0.45 0.9 2.899999999994198  0.45 0.9 2.999999999993906  0.45 0.9 3.099999999993614  0.45 0.9 3.199999999993322  0.45 0.9 3.299999999993029  0.45 0.9 3.399999999992738  0.45 0.9 3.499999999992446  0.45 0.9 3.599999999992154  0.45 0.9 3.699999999991863  0.45 0.9 3.799999999991571  0.45 0.9 3.899999999991278  0.45 0.9 3.999999999991022  0.45 0.9 4.099999999991035  0.45 0.9 4.199999999991187  0.45 0.9 4.299999999991338  0.45 0.9 4.399999999991491  0.45 0.9 4.499999999991642  0.45 0.9 4.599999999991795  0.45 0.9 4.699999999991947  0.45 0.9 4.799999999992099  0.45 0.9 4.89999999999225  0.45 0.9 4.999999999992403  0.45 0.9 5.099999999992555  0.45 0.9 5.199999999992706  0.45 0.9 5.299999999992858  0.45 0.9 5.39999999999301  0.45 0.9 5.499999999993161  0.45 0.9 5.599999999993313  0.45 0.9 5.699999999993466  0.45 0.9 5.799999999993618  0.45 0.9 5.899999999993771  0.45 0.9 5.999999999993922  0.45 0.9 6.099999999994074  0.45 0.9 6.199999999994227  0.45 0.9 6.299999999994378  0.45 0.9 6.39999999999453  0.45 0.9 6.499999999994682  0.45 0.9 6.599999999994833  0.45 0.9 6.699999999994986  0.45 0.9 6.799999999995138  0.45 0.9 6.899999999995289  0.45 0.9 6.999999999995442  0.45 0.9 7.099999999995594  0.45 0.9 7.199999999995747  0.45 0.9 7.299999999995897  0.45 0.9 7.39999999999605  0.45 0.9 7.499999999996202  0.45 0.9 7.599999999996353  0.45 0.9 7.699999999996505  0.45 0.9 7.799999999996658  0.45 0.9 7.899999999996808  0.45 0.9 7.999999999996962  0.45 0.9 8.099999999997113  0.45 0.9 8.199999999997265  0.45 0.9 8.299999999997418  0.45 0.9 8.399999999997569  0.45 0.9 8.499999999997721  0.45 0.9 8.599999999997873  0.45 0.9 8.699999999998024  0.45 0.9 8.799999999998176  0.45 0.9 8.899999999998329  0.45 0.9 8.999999999998479  0.45 0.9 9.099999999998634  0.45 0.9 9.199999999998786  0.45 0.9 9.299999999998937  0.45 0.9 9.399999999999089  0.45 0.9 9.499999999999241  0.45 0.9 9.599999999999392  0.45 0.9 9.699999999999545  0.45 0.9 9.799999999999697  0.45 0.9 9.899999999999848  0.45 0 0.09999999999992584  0.45 0 0.199999999999856  0.45 0 0.2999999999997771  0.45 0 0.3999999999996677  0.45 0 0.4999999999995511  0.45 0 0.5999999999994683  0.45 0 0.6999999999993983  0.45 0 0.7999999999993286  0.45 0 0.8999999999992587  0.45 0 0.9999999999991888  0.45 0 1.099999999999119  0.45 0 1.199999999999033  0.45 0 1.299999999998852  0.45 0 1.399999999998576  0.45 0 1.499999999998284  0.45 0 1.599999999997992  0.45 0 1.6999999999977  0.45 0 1.799999999997408  0.45 0 1.899999999997116  0.45 0 1.999999999996825  0.45 0 2.099999999996533  0.45 0 2.199999999996241  0.45 0 2.299999999995949  0.45 0 2.399999999995657  0.45 0 2.499999999995365  0.45 0 2.599999999995073  0.45 0 2.699999999994782  0.45 0 2.79999999999449  0.45 0 2.899999999994198  0.45 0 2.999999999993906  0.45 0 3.099999999993614  0.45 0 3.199999999993322  0.45 0 3.299999999993029  0.45 0 3.399999999992738  0.45 0 3.499999999992446  0.45 0 3.599999999992154  0.45 0 3.699999999991863  0.45 0 3.799999999991571  0.45 0 3.899999999991278  0.45 0 3.999999999991022  0.45 0 4.099999999991035  0.45 0 4.199999999991187  0.45 0 4.299999999991338  0.45 0 4.399999999991491  0.45 0 4.499999999991642  0.45 0 4.599999999991795  0.45 0 4.699999999991947  0.45 0 4.799999999992099  0.45 0 4.89999999999225  0.45 0 4.999999999992403  0.45 0 5.099999999992555  0.45 0 5.199999999992706  0.45 0 5.299999999992858  0.45 0 5.39999999999301  0.45 0 5.499999999993161  0.45 0 5.599999999993313  0.45 0 5.699999999993466  0.45 0 5.799999999993618  0.45 0 5.899999999993771  0.45 0 5.999999999993922  0.45 0 6.099999999994074  0.45 0 6.199999999994227  0.45 0 6.299999999994378  0.45 0 6.39999999999453  0.45 0 6.499999999994682  0.45 0 6.599999999994833  0.45 0 6.699999999994986  0.45 0 6.799999999995138  0.45 0 6.899999999995289  0.45 0 6.999999999995442  0.45 0 7.099999999995594  0.45 0 7.199999999995747  0.45 0 7.299999999995897  0.45 0 7.39999999999605  0.45 0 7.499999999996202  0.45 0 7.599999999996353  0.45 0 7.699999999996505  0.45 0 7.799999999996658  0.45 0 7.899999999996808  0.45 0 7.999999999996962  0.45 0 8.099999999997113  0.45 0 8.199999999997265  0.45 0 8.299999999997418  0.45 0 8.399999999997569  0.45 0 8.499999999997721  0.45 0 8.599999999997873  0.45 0 8.699999999998024  0.45 0 8.799999999998176  0.45 0 8.899999999998329  0.45 0 8.999999999998479  0.45 0 9.099999999998634  0.45 0 9.199999999998786  0.45 0 9.299999999998937  0.45 0 9.399999999999089  0.45 0 9.499999999999241  0.45 0 9.599999999999392  0.45 0 9.699999999999545  0.45 0 9.799999999999697  0.45 0 9.899999999999848  0.55 0 0.09999999999992584  0.55 0 0.199999999999856
[...]
<PointData  Vectors="f_10"> 
<DataArray  type="Float64"  Name="f_10"  NumberOfComponents="3" format="ascii">0.0000000000000000e+00 0.0000000000000000e+00 0.0000000000000000e+00  0.0000000000000000e+00 0.0000000000000000e+00 0.0000000000000000e+00  0.0000000000000000e+00 0.0000000000000000e+00 0.0000000000000000e+00  0.0000000000000000e+00 0.0000000000000000e+00 0.0000000000000000e+00  0.0000000000000000e+00 0.0000000000000000e+00 0.0000000000000000e+00  0.0000000000000000e+00 0.0000000000000000e+00 0.0000000000000000e+00  0.0000000000000000e+00 0.0000000000000000e+00 0.0000000000000000e+00  0.0000000000000000e+00 0.0000000000000000e+00 0.0000000000000000e+00  1.3850709654514828e+00 -4.3964245603468531e-02 9.1600458204616167e-02  1.3850905906183351e+00 -4.3046214443737676e-03 9.1619453144488987e-03  1.4654929624479529e+00 -4.3386506605242120e-03 9.1963813167112753e-03  1.4654931751382434e+00 4.5863846079326189e-03 -9.2183517764279129e-03  1.3850934996647457e+00 4.5531865042368483e-03 -9.1612204442345531e-03  1.3850710876286230e+00 4.4218599641392541e-02 -9.1598237372021524e-02  1.3762720629498348e+00 4.4218511446999016e-02 -9.1621944841953809e-02  1.3762727240309043e+00 -4.3964145127098078e-02 9.1624087424048373e-02  0.0000000000000000e+00 0.0000000000000000e+00 0.0000000000000000e+00  0.0000000000000000e+00 0.0000000000000000e+00 0.0000000000000000e+00  0.0000000000000000e+00 0.0000000000000000e+00 0.0000000000000000e+00  0.0000000000000000e+00 0.0000000000000000e+00 0.0000000000000000e+00  0.0000000000000000e+00 0.0000000000000000e+00 0.0000000000000000e+00  0.0000000000000000e+00 0.0000000000000000e+00 0.0000000000000000e+00  0.0000000000000000e+00 0.0000000000000000e+00 0.0000000000000000e+00  0.0000000000000000e+00 0.0000000000000000e+00 0.0000000000000000e+00  0.0000000000000000e+00 0.0000000000000000e+00 0.0000000000000000e+00  0.0000000000000000e+00 0.0000000000000000e+00 0.0000000000000000e+00  0.0000000000000000e+00 0.0000000000000000e+00 0.0000000000000000e+00  0.0000000000000000e+00 0.0000000000000000e+00 0.0000000000000000e+00  0.0000000000000000e+00 0.0000000000000000e+00 0.0000000000000000e+00  0.0000000000000000e+00 0.0000000000000000e+00 0.0000000000000000e+00  0.0000000000000000e+00 0.0000000000000000e+00 0.0000000000000000e+00  0.0000000000000000e+00 0.0000000000000000e+00 0.0000000000000000e+00  0.0000000000000000e+00 0.0000000000000000e+00 0.0000000000000000e+00  0.0000000000000000e+00 0.0000000000000000e+00 0.0000000000000000e+00  0.0000000000000000e+00 0.0000000000000000e+00 0.0000000000000000e+00  0.0000000000000000e+00 0.0000000000000000e+00 0.0000000000000000e+00  0.0000000000000000e+00 0.0000000000000000e+00 0.0000000000000000e+00  0.0000000000000000e+00 0.0000000000000000e+00 0.0000000000000000e+00  0.0000000000000000e+00 0.0000000000000000e+00 0.0000000000000000e+00  0.0000000000000000e+00 0.0000000000000000e+00 0.0000000000000000e+00  0.0000000000000000e+00 0.0000000000000000e+00 0.0000000000000000e+00  0.0000000000000000e+00 0.0000000000000000e+00 0.0000000000000000e+00  0.0000000000000000e+00 0.0000000000000000e+00 0.0000000000000000e+00  0.0000000000000000e+00 0.0000000000000000e+00 0.0000000000000000e+00  0.0000000000000000e+00 0.0000000000000000e+00 0.0000000000000000e+00  0.0000000000000000e+00 0.0000000000000000e+00 0.0000000000000000e+00  0.0000000000000000e+00 0.0000000000000000e+00 0.0000000000000000e+00  0.0000000000000000e+00 0.0000000000000000e+00 0.0000000000000000e+00  0.0000000000000000e+00 0.0000000000000000e+00 0.0000000000000000e+00  1.3850710623440405e+00 -3.6044834600458472e-02 7.5109225561006535e-02  1.3850727293527052e+00 -2.8121100499490705e-02 5.8620183185359047e-02  1.3850756443479266e+00 -2.0191542376841617e-02 4.2132593675030021e-02  1.3850834212267773e+00 -1.2251321942456801e-02 2.5646598780718125e-02  1.3939910259726125e+00 -4.3225226934442314e-03 9.1693508755628060e-03  1.4029154298325970e+00 -4.3375377903457132e-03 9.1754490774807636e-03  1.4118577769156506e+00 -4.3442397110179751e-03 9.1815373976904292e-03  1.4208048510004123e+00 -4.3442492929017017e-03 9.1855833516952534e-03  1.4297506428360556e+00 -4.3448298193490796e-03 9.1895619694082557e-03  1.4386955366465539e+00 -4.3428788849530098e-03 9.1915470168229922e-03  1.4476334516694038e+00 -4.3394548778209448e-03 9.1949846351219947e-03  1.4565655049783390e+00 -4.3392676717426259e-03 9.1969359873409779e-03  1.4565653761156374e+00 4.5866572038826547e-03 -9.2158807989287869e-03  1.4476343378903465e+00 4.5884038384823925e-03 -9.2114407201931807e-03  1.4386960480421087e+00 4.5916323117566734e-03 -9.2050450786683464e-03  1.4297532016912335e+00 4.5921549264886881e-03 -9.1992054466891720e-03  1.4208079108949443e+00 4.5936154217486808e-03 -9.1929188750820671e-03  1.4118582700676945e+00 4.5910701185480967e-03 -9.1871189223518435e-03  1.4029172144791979e+00 4.5822488732124430e-03 -9.1792412247804628e-03  1.3939904848834666e+00 4.5724621891178345e-03 -9.1693212193933744e-03  1.3850822803142913e+00 1.2503941596079102e-02 -2.5646524576219382e-02  1.3850772844535508e+00 2.0443527870538054e-02 -4.2131827531046412e-02  1.3850724278283884e+00 2.8374926307035843e-02 -5.8617531114583767e-02  1.3850713672456083e+00 3.6299007741424243e-02 -7.5106915791332732e-02  1.3762696150617530e+00 3.5418474547489344e-02 -7.3296918451505266e-02  1.3762656557730362e+00 2.6613687858220322e-02 -5.4971992036337604e-02  1.3762604845409332e+00 1.7798087681333605e-02 -3.6646673012850878e-02  1.3762576624269292e+00 8.9720776260587432e-03 -1.8324986088067503e-02  1.3762539534204141e+00 1.2381882554346200e-04 1.8950265491248259e-06  1.3762570776029011e+00 -8.7199811496066898e-03 1.8325346372293827e-02  1.3762618762228700e+00 -1.7547209957416880e-02 3.6649952020380627e-02  1.3762656886405007e+00 -2.6358855311751944e-02 5.4972945712007074e-02  1.3762703189854957e+00 -3.5164658521712057e-02 7.3298447151574853e-02  1.1917728011779820e-03 4.9064884034392473e-05 2.6811738935353271e-03  2.4312377518071237e-03 -4.6940729332716597e-04 5.1642928152948672e-03  3.9798354291160354e-03 -1.0398561721028706e-03 7.6673139646552986e-03  6.0937541359892961e-03 -1.7404488184105929e-03 1.0089949969283458e-02  8.6424602488814218e-03 -2.5197862180392689e-03 1.2490436421760905e-02  1.1719045925088285e-02 -3.3193520486323245e-03 1.4882740195509069e-02  1.5126784972754647e-02 -4.0620502490251618e-03 1.7311059450871486e-02  1.9171351762301028e-02 -4.8386320170512916e-03 1.9637128759945256e-02  2.3687620023071582e-02 -5.7319227699827264e-03 2.1937081606554717e-02  2.8622618474202086e-02 -6.6091897778318620e-03 2.4119104118610991e-02  3.3955519203557480e-02 -7.4744437998913232e-03 2.6417417060275571e-02  3.9778538235441356e-02 -8.2672551609632317e-03 2.8472043605475072e-02  4.6035127823663424e-02 -9.1537871110102791e-03 3.0559235144868316e-02  5.2614839295577906e-02 -1.0025737968104308e-02 3.2669419645806941e-02  5.9662801358628378e-02 -1.0908833800325656e-02 3.4729819848049126e-02  6.7125706178234101e-02 -1.1728858358654668e-02 3.6698955532689648e-02  7.4986784718419991e-02 -1.2569035930977900e-02 3.8689213248370463e-02  8.3181221835846919e-02 -1.3290983995642614e-02 4.0501621791541369e-02  9.1753153714142888e-02 -1.4054615925974142e-02 4.2291900517355659e-02  1.0063691347647215e-01 -1.4806073792304697e-02 4.4080264529564497e-02  1.0989472466352378e-01 -1.5511141492374033e-02 4.5818715999081237e-02  1.1946556064044286e-01 -1.6245737434676531e-02 4.7575412270280365e-02  1.2942115343553326e-01 -1.6941142159391118e-02 4.9269309987723858e-02  1.3971581036029476e-01 -1.7586119426306373e-02 5.0863495464755125e-02  1.5028726827013750e-01 -1.8222146284995792e-02 5.2407652855394421e-02  1.6118162594855173e-01 -1.8864273582024305e-02 5.3934281036384826e-02  1.7234669133669933e-01 -1.9512656945944149e-02 5.5442976612099286e-02  1.8385417103847829e-01 -2.0128964398971196e-02 5.6875065355456382e-02  1.9562607860456302e-01 -2.0753316958533923e-02 5.8277505126830109e-02  2.0760542256513156e-01 -2.1341699208562132e-02 5.9691263069737689e-02  2.1990565047696800e-01 -2.1935250221198004e-02 6.0979866647302129e-02  2.3248236159198843e-01 -2.2572828798226946e-02 6.2232956458444164e-02  2.4530931914450788e-01 -2.3260708582235307e-02 6.3491690543598600e-02  2.5839069446501173e-01 -2.3924997251291477e-02 6.4742847612612606e-02  2.7164602096347679e-01 -2.4551957175432515e-02 6.5934508365635525e-02  2.8517968419364764e-01 -2.5195222694479852e-02 6.7056853025933588e-02  2.9893103555262701e-01 -2.5845209003269341e-02 6.8208436526381519e-02  3.1293942234266447e-01 -2.6468063143602279e-02 6.9278090160941094e-02  3.2712407629215429e-01 -2.7112839514739456e-02 7.0323520356734864e-02  3.4149926289909155e-01 -2.7724835950616651e-02 7.1353123369519808e-02  3.5608257430909140e-01 -2.8275367349206756e-02 7.2316892816880404e-02  3.7086339031543780e-01 -2.8847839637704761e-02 7.3295152595113114e-02  3.8582690473725312e-01 -2.9380441515882913e-02 7.4237769690198643e-02  4.0094645188268729e-01 -2.9867950085826076e-02 7.5117950887321858e-02  4.1621444848233102e-01 -3.0324513044136366e-02 7.5990834433913135e-02  4.3168712359999062e-01 -3.0762757349320803e-02 7.6772781423070591e-02  4.4731367629061081e-01 -3.1254281356293871e-02 7.7571611719954109e-02  4.6306888462221968e-01 -3.1745774482912541e-02 7.8320725630193724e-02  4.7897097482576528e-01 -3.2231728086197196e-02 7.9037338749094688e-02  4.9502983245106164e-01 -3.2753505356957702e-02 7.9772254170006565e-02  5.1123727857646939e-01 -3.3227530542439362e-02 8.0458663638583061e-02  5.2756736555014683e-01 -3.3658241928520384e-02 8.1102162418044271e-02  5.4400556520796861e-01 -3.4090777728864798e-02 8.1795957400489588e-02  5.6057772511298909e-01 -3.4447011359109450e-02 8.2360501520821680e-02  5.7724186298135172e-01 -3.4818308604824162e-02 8.2932863738506196e-02  5.9402714744397556e-01 -3.5193875602807609e-02 8.3468128891842575e-02  6.1093520337427731e-01 -3.5595645173242416e-02 8.4015799714998757e-02  6.2794177095885439e-01 -3.5972381533707389e-02 8.4528428378873297e-02  6.4504762874502197e-01 -3.6330541737946725e-02 8.4999644175882544e-02  6.6223128770997608e-01 -3.6681528631221906e-02 8.5451424787288024e-02  6.7949423828392952e-01 -3.7029828384067501e-02 8.5894667218206502e-02  6.9682875890218110e-01 -3.7349736690390982e-02 8.6282828020449107e-02  7.1424716138382693e-01 -3.7703748677974408e-02 8.6689237367868641e-02  7.3176959409691400e-01 -3.8050129922779750e-02 8.7067431688177890e-02  7.4932817396415785e-01 -3.8375795721849605e-02 8.7442817077312870e-02  7.6696723808655132e-01 -3.8669025759429758e-02 8.7775566906470120e-02  7.8467085633102629e-01 -3.8944846388088296e-02 8.8101986491247300e-02  8.0242224341092239e-01 -3.9205705721827584e-02 8.8384182088828325e-02  8.2022612065853939e-01 -3.9491826770376257e-02 8.8672628670551701e-02  8.3809700835161882e-01 -3.9745150395112255e-02 8.8924214084440234e-02  8.5600370854805996e-01 -4.0021108893336405e-02 8.9175925541850554e-02  8.7396681411792543e-01 -4.0271112535880033e-02 8.9402042495874884e-02  8.9196223080265125e-01 -4.0537830483451956e-02 8.9624633336131285e-02  9.0999605055237565e-01 -4.0781939683416382e-02 8.9827211797563311e-02  9.2808230079316034e-01 -4.1009048886751144e-02 9.0010526498077545e-02  9.4618022321122852e-01 -4.1225225245553353e-02 9.0185638783880556e-02  9.6430528484565836e-01 -4.1431202069620740e-02 9.0346538871587584e-02  9.8247602606013129e-01 -4.1627225417647025e-02 9.0501915515590906e-02  1.0006541758831289e+00 -4.1817219400940138e-02 9.0637412910227366e-02  1.0188572111469645e+00 -4.1975869889772824e-02 9.0762981646869995e-02  1.0370850675429264e+00 -4.2143150694052472e-02 9.0881618707590414e-02  1.0553398699452547e+00 -4.2289002018085456e-02 9.0969076807933660e-02  1.0735962762665536e+00 -4.2456947227852981e-02 9.1062432429659862e-02  1.0918746334785481e+00 -4.2603454735585425e-02 9.1137638767815582e-02  1.1101635267293581e+00 -4.2750168050401140e-02 9.1213591160922522e-02  1.1284669240198826e+00 -4.2896962534724137e-02 9.1275446554682935e-02  1.1467722061311330e+00 -4.3032335985304301e-02 9.1333721440241489e-02  1.1650944374469068e+00 -4.3158026899692496e-02 9.1384789907734118e-02  1.1834227093119354e+00 -4.3276412343077678e-02 9.1432183133341255e-02  1.2017501974130806e+00 -4.3376484419073880e-02 9.1467800862571960e-02  1.2200810828749198e+00 -4.3472947336735353e-02 9.1496496013323644e-02  1.2384155078752532e+00 -4.3564810312846314e-02 9.1521742862036459e-02  1.2567519849367719e+00 -4.3643681336546343e-02 9.1545202871225820e-02  1.2750845170509373e+00 -4.3712046077536239e-02 9.1560256681627206e-02  1.2934212709994795e+00 -4.3775932845756163e-02 9.1575905287076917e-02  1.3117544108479040e+00 -4.3827298101638518e-02 9.1585327642891429e-02  1.3300855176560051e+00 -4.3871257747971903e-02 9.1591835768195531e-02  1.3484166154133337e+00 -4.3910377605856490e-02 9.1596155590828773e-02  1.3667455087755043e+00 -4.3939563137916630e-02 9.1600058573966664e-02  2.3932818776185047e-04 -3.9189498679109820e-05 2.6503567463845046e-04  1.1638148274449585e-03 -2.8921255747343645e-05 5.4961080977639445e-04  2.6537201844201042e-03 -1.0378412003943240e-04 8.0697159083895954e-04  4.6565628967855099e-03 -1.4683764767610321e-04 1.0946767306911570e-03  7.2894851324351879e-03 -2.2590739699775890e-04 1.3560892693631305e-03  1.0359348663611477e-02 -3.0391645659603306e-04 1.5856761263056977e-03  1.3948672114838752e-02 -3.8813108070199045e-04 1.8824151658549714e-03  1.7989759905708291e-02 -5.0414051351766777e-04 2.1143551393509401e-03  2.2503990038105572e-02 -5.2989678933083460e-04 2.3369290805447043e-03  2.7457328121169678e-02 -6.2631803992140250e-04 2.5328132704996197e-03  3.2857495724634547e-02 -7.3972911562983248e-04 2.7314196076040141e-03  3.8707677686136664e-02 -8.0844776545786095e-04 3.0061360642062657e-03  4.4940099922020249e-02 -9.1266280310415117e-04 3.1906462345704435e-03  5.1592338966092471e-02 -9.7746228109496795e-04 3.3675339777953814e-03  5.8668968113658598e-02 -1.0665089668247941e-03 3.6305218346937445e-03  6.6123765988036348e-02 -1.1442407325805500e-03 3.7700957971076748e-03  7.3959600357991179e-02 -1.2201289345535758e-03 3.9872154477330448e-03  8.2157696833632873e-02 -1.2981302795419798e-03 4.1285354711452851e-03  9.0759246073438465e-02 -1.3761122667154328e-03 4.3452737649483904e-03  9.9667990675785884e-02 -1.4414330436238001e-03 4.5239640064970721e-03  1.0895937648723661e-01 -1.4953977344978856e-03 4.6506656407746686e-03  1.1858959424458450e-01 -1.5783228521624969e-03 4.8403784584189454e-03  1.2857183105836240e-01 -1.6342265506890858e-03 5.0067153076387210e-03  1.3887028737444934e-01 -1.6967979103492592e-03 5.1945204627159240e-03  1.4948417888810331e-01 -1.7598675325113263e-03 5.3288950543970079e-03  1.6039922094468925e-01 -1.8342633881188823e-03 5.4779563962771829e-03  1.7158084305638824e-01 -1.8735924081444047e-03 5.6057240190989658e-03  1.8309557065365778e-01 -1.9398061238239488e-03 5.7653735146903163e-03  1.9487092630119843e-01 -2.0085507635445345e-03 5.8785685680172155e-03  2.0693873546813801e-01 -2.0735802966357800e-03 6.0712903554445419e-03  2.1924125597981170e-01 -2.1293381934631966e-03 6.1611606025566302e-03  2.3180167101510668e-01 -2.1927755458406293e-03 6.2878647807084109e-03  2.4468252999344167e-01 -2.2550999113256903e-03 6.4317209606538804e-03  2.5777099210470267e-01 -2.3223888510593626e-03 6.5494307938869572e-03  2.7107325024731083e-01 -2.3744823799254260e-03 6.6560544687084017e-03  2.8466139572983040e-01 -2.4070352103573870e-03 6.7643629748016642e-03  2.9839175255240236e-01 -2.4765872260631683e-03 6.8596182754189650e-03  3.1238087598752418e-01 -2.5516379574504946e-03 6.9909782102075138e-03  3.2656832064588442e-01 -2.6067058443045451e-03 7.0985071858765403e-03  3.4098771805994837e-01 -2.6585344697298867e-03 7.1923195915515404e-03  3.5559741226356512e-01 -2.7442632599931497e-03 7.3068684596437660e-03  3.7037341374903121e-01 -2.7969940350228112e-03 7.3998232525629704e-03  3.8534907436448601e-01 -2.8544405153677352e-03 7.5182896346453944e-03  4.0049253200026264e-01 -2.9107617848995022e-03 7.5937103597643364e-03  4.1578264778655183e-01 -2.9445913418883075e-03 7.6815746068705998e-03  4.3125349183127271e-01 -2.9861193566231748e-03 7.7362103687299141e-03  4.4689487145628670e-01 -3.0302403625075162e-03 7.8087130881734209e-03  4.6267945216150969e-01 -3.0783889567418286e-03 7.9050856735544024e-03  4.7861251050915571e-01 -3.1235809866160995e-03 7.9760385226842895e-03  4.9469274893539045e-01 -3.1701562301953050e-03 8.0452674067085436e-03  5.1089066686861684e-01 -3.2183366425152559e-03 8.0934279363526537e-03  5.2724183404571279e-01 -3.2555791229938046e-03 8.1423906858556702e-03  5.4370641148499477e-01 -3.3086288409964843e-03 8.2377329856371129e-03  5.6026330340665098e-01 -3.3384953742272806e-03 8.2616701497103973e-03  5.7697126581354485e-01 -3.3895159682643251e-03 8.3490903743236779e-03  5.9378341982120031e-01 -3.4135283489514709e-03 8.4027607453353234e-03  6.1069301831718936e-01 -3.4376438921165917e-03 8.4637359811221627e-03  6.2769253530518299e-01 -3.4756764343954871e-03 8.4871283761013949e-03  6.4477767900529781e-01 -3.5196182617509308e-03 8.5382710152851066e-03  6.6197009380998351e-01 -3.5586501724557285e-03 8.5937862163209949e-03  6.7925217713562358e-01 -3.5809359892601013e-03 8.6319821911085837e-03  6.9662376783042768e-01 -3.6175364218874466e-03 8.7017555839209292e-03  7.1406101965987168e-01 -3.6503174453060587e-03 8.7125167574281289e-03  7.3157754088765314e-01 -3.6768480089453726e-03 8.7389244308144799e-03  7.4915742783570005e-01 -3.7072451039534813e-03 8.7683799186093064e-03  7.6680664228867113e-01 -3.7482355708563665e-03 8.8136896070963623e-03  7.8451779766077911e-01 -3.7694898580550406e-03 8.8305094157504170e-03  8.0228522068647357e-01 -3.8115680514128648e-03 8.8723195351370441e-03  8.2010465549240552e-01 -3.8342800773208778e-03 8.8823720730858858e-03  8.3797908460725212e-01 -3.8682725629324167e-03 8.9293504752903374e-03  8.5589905860986848e-01 -3.8921374963878392e-03 8.9458919242607939e-03  8.7386014963568226e-01 -3.9196304105834304e-03 8.9692390023124943e-03  8.9185570953873416e-01 -3.9382613083919207e-03 8.9968166935806611e-03  9.0990864802717297e-01 -3.9526069204906681e-03 9.0172936897316026e-03  9.2799259467131545e-01 -3.9818006921870748e-03 9.0309022338177294e-03  9.4609728834125995e-01 -4.0044026328628487e-03 9.0510561839541696e-03  9.6423576009707546e-01 -4.0242908995550067e-03 9.0622895338550342e-03  9.8240648194641511e-01 -4.0544199662743106e-03 9.0795037370976373e-03  1.0005990229869075e+00 -4.0760307511489898e-03 9.0921305122472172e-03  1.0188043317675313e+00 -4.0920234144715103e-03 9.0979717510916019e-03  1.0370453438078600e+00 -4.1033861599933568e-03 9.1037630853166903e-03  1.0552996389863143e+00 -4.1230845938898201e-03 9.1116425299315289e-03  1.0735651032172244e+00 -4.1401271128182707e-03 9.1226528151882244e-03  1.0918539540757164e+00 -4.1591915049621966e-03 9.1289569469983952e-03  1.1101510047256595e+00 -4.1743983724801441e-03 9.1372717830315604e-03  1.1284490283009008e+00 -4.1855216118864575e-03 9.1429504095256482e-03  1.1467668632078523e+00 -4.2003953756305735e-03 9.1435253751747415e-03  1.1650892234728880e+00 -4.2133686932163501e-03 9.1484448525202943e-03  1.1834112300108151e+00 -4.2251078385825988e-03 9.1506075113703678e-03  1.2017443520255662e+00 -4.2399835429833936e-03 9.1613512227228695e-03  1.2200810582693438e+00 -4.2491280682293315e-03 9.1639033585100751e-03  1.2384157172270776e+00 -4.2595353803436152e-03 9.1614489974382301e-03  1.2567556839983556e+00 -4.2692368451517151e-03 9.1621153850351706e-03  1.2750937930439215e+00 -4.2758109646812833e-03 9.1630552876758170e-03  1.2934320389295968e+00 -4.2841564633585407e-03 9.1634532583041405e-03  1.3117678027490771e+00 -4.2927318843197408e-03 9.1644561574263685e-03  1.3300996506373317e+00 -4.2995411853129512e-03 9.1662190557670383e-03  1.3484344706177358e+00 -4.3024681829612488e-03 9.1649095958438922e-03  1.3667654901835617e+00 -4.3034104192405413e-03 9.1629677274394500e-03  6.1753666370494519e-04 -9.7534730076071866e-07 4.230140