<?xml version="1.0"?>
<VTKFile type="UnstructuredGrid"  version="0.1"  >
<UnstructuredGrid>
<Piece  NumberOfPoints="7146" NumberOfCells="21889">
<Points>
<DataArray  type="Float64"  NumberOfComponents="3"  format="ascii">0 0 0  1 0 0  1 0.1 0  0.55 0.1 0  0.55 0.9 0  1 0.9 0  1 1 0  0 1 0  0 0.9 0  0.45 0.9 0  0.45 0.1 0  0 0.1 0  0 0 10  1 0 10  1 0.1 10  0.55 0.1 10  0.55 0.9 10  1 0.9 10  1 1 10  0 1 10  0 0.9 10  0.45 0.9 10  0.45 0.1 10  0 0.1 10  0.09999999999981467 0 0  0.1999999999995579 0 0  0.2999999999992664 0 0  0.3999999999989749 0 0  0.4999999999986943 0 0  0.5999999999989468 0 0  0.69999999999921 0 0  0.7999999999994734 0 0  0.8999999999997368 0 0  0.9100000000002904 0.1 0  0.8200000000005419 0.1 0  0.7300000000004594 0.1 0  0.6400000000001429 0.1 0  0.55 0.1999999999998373 0  0.55 0.2999999999995446 0  0.55 0.3999999999992517 0  0.55 0.4999999999989587 0  0.55 0.5999999999992082 0  0.55 0.6999999999994794 0  0.55 0.7999999999997506 0  0.6399999999997097 0.9 0  0.7299999999994582 0.9 0  0.8199999999995407 0.9 0  0.9099999999998571 0.9 0  0.8999999999995836 1 0  0.7999999999999998 1 0  0.7000000000006934 1 0  0.6000000000013869 1 0  0.5000000000020587 1 0  0.4000000000016644 1 0  0.3000000000012483 1 0  0.2000000000008322 1 0  0.100000000000416 1 0  0.08999999999980426 0.9 0  0.1799999999995429 0.9 0  0.2699999999995232 0.9 0  0.3599999999997603 0.9 0  0.45 0.8000000000001194 0  0.45 0.7000000000004121 0  0.45 0.6000000000007266 0  0.45 0.5000000000010305 0  0.45 0.400000000000781 0  0.45 0.3000000000005206 0  0.45 0.2000000000002494 0  0.3600000000001345 0.1 0  0.2700000000004186 0.1 0  0.180000000000462 0.1 0  0.09000000000023223 0.1 0  0.09999999999981467 0 10  0.1999999999995579 0 10  0.2999999999992664 0 10  0.3999999999989749 0 10  0.4999999999986943 0 10  0.5999999999989468 0 10  0.69999999999921 0 10  0.7999999999994734 0 10  0.8999999999997368 0 10  0.9100000000002904 0.1 10  0.8200000000005419 0.1 10  0.7300000000004594 0.1 10  0.6400000000001429 0.1 10  0.55 0.1999999999998373 10  0.55 0.2999999999995446 10  0.55 0.3999999999992517 10  0.55 0.4999999999989587 10  0.55 0.5999999999992082 10  0.55 0.6999999999994794 10  0.55 0.7999999999997506 10  0.6399999999997097 0.9 10  0.7299999999994582 0.9 10  0.8199999999995407 0.9 10  0.9099999999998571 0.9 10  0.8999999999995836 1 10  0.7999999999999998 1 10  0.7000000000006934 1 10  0.6000000000013869 1 10  0.5000000000020587 1 10  0.4000000000016644 1 10  0.3000000000012483 1 10  0.2000000000008322 1 10  0.100000000000416 1 10  0.08999999999980426 0.9 10  0.1799999999995429 0.9 10  0.2699999999995232 0.9 10  0.3599999999997603 0.9 10  0.45 0.8000000000001194 10  0.45 0.7000000000004121 10  0.45 0.6000000000007266 10  0.45 0.5000000000010305 10  0.45 0.400000000000781 10  0.45 0.3000000000005206 10  0.45 0.2000000000002494 10  0.3600000000001345 0.1 10  0.2700000000004186 0.1 10  0.180000000000462 0.1 10  0.09000000000023223 0.1 10  0 0 0.09999999999992584  0 0 0.199999999999856  0 0 0.2999999999997771  0 0 0.3999999999996677  0 0 0.4999999999995511  0 0 0.5999999999994683  0 0 0.6999999999993983  0 0 0.7999999999993286  0 0 0.8999999999992587  0 0 0.9999999999991888  0 0 1.099999999999119  0 0 1.199999999999033  0 0 1.299999999998852  0 0 1.399999999998576  0 0 1.499999999998284  0 0 1.599999999997992  0 0 1.6999999999977  0 0 1.799999999997408  0 0 1.899999999997116  0 0 1.999999999996825  0 0 2.099999999996533  0 0 2.199999999996241  0 0 2.299999999995949  0 0 2.399999999995657  0 0 2.499999999995365  0 0 2.599999999995073  0 0 2.699999999994782  0 0 2.79999999999449  0 0 2.899999999994198  0 0 2.999999999993906  0 0 3.099999999993614  0 0 3.199999999993322  0 0 3.299999999993029  0 0 3.399999999992738  0 0 3.499999999992446  0 0 3.599999999992154  0 0 3.699999999991863  0 0 3.799999999991571  0 0 3.899999999991278  0 0 3.999999999991022  0 0 4.099999999991035  0 0 4.199999999991187  0 0 4.299999999991338  0 0 4.399999999991491  0 0 4.499999999991642  0 0 4.599999999991795  0 0 4.699999999991947  0 0 4.799999999992099  0 0 4.89999999999225  0 0 4.999999999992403  0 0 5.099999999992555  0 0 5.199999999992706  0 0 5.299999999992858  0 0 5.39999999999301  0 0 5.499999999993161  0 0 5.599999999993313  0 0 5.699999999993466  0 0 5.799999999993618  0 0 5.899999999993771  0 0 5.999999999993922  0 0 6.099999999994074  0 0 6.199999999994227  0 0 6.299999999994378  0 0 6.39999999999453  0 0 6.499999999994682  0 0 6.599999999994833  0 0 6.699999999994986  0 0 6.799999999995138  0 0 6.899999999995289  0 0 6.999999999995442  0 0 7.099999999995594  0 0 7.199999999995747  0 0 7.299999999995897  0 0 7.39999999999605  0 0 7.499999999996202  0 0 7.599999999996353  0 0 7.699999999996505  0 0 7.799999999996658  0 0 7.899999999996808  0 0 7.999999999996962  0 0 8.099999999997113  0 0 8.199999999997265  0 0 8.299999999997418  0 0 8.399999999997569  0 0 8.499999999997721  0 0 8.599999999997873  0 0 8.699999999998024  0 0 8.799999999998176  0 0 8.899999999998329  0 0 8.999999999998479  0 0 9.099999999998634  0 0 9.199999999998786  0 0 9.299999999998937  0 0 9.399999999999089  0 0 9.499999999999241  0 0 9.599999999999392  0 0 9.699999999999545  0 0 9.799999999999697  0 0 9.899999999999848  1 0 0.09999999999992584  1 0 0.199999999999856  1 0 0.2999999999997771  1 0 0.3999999999996677  1 0 0.4999999999995511  1 0 0.5999999999994683  1 0 0.6999999999993983  1 0 0.7999999999993286  1 0 0.8999999999992587  1 0 0.9999999999991888  1 0 1.099999999999119  1 0 1.199999999999033  1 0 1.299999999998852  1 0 1.399999999998576  1 0 1.499999999998284  1 0 1.599999999997992  1 0 1.6999999999977  1 0 1.799999999997408  1 0 1.899999999997116  1 0 1.999999999996825  1 0 2.099999999996533  1 0 2.199999999996241  1 0 2.299999999995949  1 0 2.399999999995657  1 0 2.499999999995365  1 0 2.599999999995073  1 0 2.699999999994782  1 0 2.79999999999449  1 0 2.899999999994198  1 0 2.999999999993906  1 0 3.099999999993614  1 0 3.199999999993322  1 0 3.299999999993029  1 0 3.399999999992738  1 0 3.499999999992446  1 0 3.599999999992154  1 0 3.699999999991863  1 0 3.799999999991571  1 0 3.899999999991278  1 0 3.999999999991022  1 0 4.099999999991035  1 0 4.199999999991187  1 0 4.299999999991338  1 0 4.399999999991491  1 0 4.499999999991642  1 0 4.599999999991795  1 0 4.699999999991947  1 0 4.799999999992099  1 0 4.89999999999225  1 0 4.999999999992403  1 0 5.099999999992555  1 0 5.199999999992706  1 0 5.299999999992858  1 0 5.39999999999301  1 0 5.499999999993161  1 0 5.599999999993313  1 0 5.699999999993466  1 0 5.799999999993618  1 0 5.899999999993771  1 0 5.999999999993922  1 0 6.099999999994074  1 0 6.199999999994227  1 0 6.299999999994378  1 0 6.39999999999453  1 0 6.499999999994682  1 0 6.599999999994833  1 0 6.699999999994986  1 0 6.799999999995138  1 0 6.899999999995289  1 0 6.999999999995442  1 0 7.099999999995594  1 0 7.199999999995747  1 0 7.299999999995897  1 0 7.39999999999605  1 0 7.499999999996202  1 0 7.599999999996353  1 0 7.699999999996505  1 0 7.799999999996658  1 0 7.899999999996808  1 0 7.999999999996962  1 0 8.099999999997113  1 0 8.199999999997265  1 0 8.299999999997418  1 0 8.399999999997569  1 0 8.499999999997721  1 0 8.599999999997873  1 0 8.699999999998024  1 0 8.799999999998176  1 0 8.899999999998329  1 0 8.999999999998479  1 0 9.099999999998634  1 0 9.199999999998786  1 0 9.299999999998937  1 0 9.399999999999089  1 0 9.499999999999241  1 0 9.599999999999392  1 0 9.699999999999545  1 0 9.799999999999697  1 0 9.899999999999848  1 0.1 0.09999999999992584  1 0.1 0.199999999999856  1 0.1 0.2999999999997771  1 0.1 0.3999999999996677  1 0.1 0.4999999999995511  1 0.1 0.5999999999994683  1 0.1 0.6999999999993983  1 0.1 0.7999999999993286  1 0.1 0.8999999999992587  1 0.1 0.9999999999991888  1 0.1 1.099999999999119  1 0.1 1.199999999999033  1 0.1 1.299999999998852  1 0.1 1.399999999998576  1 0.1 1.499999999998284  1 0.1 1.599999999997992  1 0.1 1.6999999999977  1 0.1 1.799999999997408  1 0.1 1.899999999997116  1 0.1 1.999999999996825  1 0.1 2.099999999996533  1 0.1 2.199999999996241  1 0.1 2.299999999995949  1 0.1 2.399999999995657  1 0.1 2.499999999995365  1 0.1 2.599999999995073  1 0.1 2.699999999994782  1 0.1 2.79999999999449  1 0.1 2.899999999994198  1 0.1 2.999999999993906  1 0.1 3.099999999993614  1 0.1 3.199999999993322  1 0.1 3.299999999993029  1 0.1 3.399999999992738  1 0.1 3.499999999992446  1 0.1 3.599999999992154  1 0.1 3.699999999991863  1 0.1 3.799999999991571  1 0.1 3.899999999991278  1 0.1 3.999999999991022  1 0.1 4.099999999991035  1 0.1 4.199999999991187  1 0.1 4.299999999991338  1 0.1 4.399999999991491  1 0.1 4.499999999991642  1 0.1 4.599999999991795  1 0.1 4.699999999991947  1 0.1 4.799999999992099  1 0.1 4.89999999999225  1 0.1 4.999999999992403  1 0.1 5.099999999992555  1 0.1 5.199999999992706  1 0.1 5.299999999992858  1 0.1 5.39999999999301  1 0.1 5.499999999993161  1 0.1 5.599999999993313  1 0.1 5.699999999993466  1 0.1 5.799999999993618  1 0.1 5.899999999993771  1 0.1 5.999999999993922  1 0.1 6.099999999994074  1 0.1 6.199999999994227  1 0.1 6.299999999994378  1 0.1 6.39999999999453  1 0.1 6.499999999994682  1 0.1 6.599999999994833  1 0.1 6.699999999994986  1 0.1 6.799999999995138  1 0.1 6.899999999995289  1 0.1 6.999999999995442  1 0.1 7.099999999995594  1 0.1 7.199999999995747  1 0.1 7.299999999995897  1 0.1 7.39999999999605  1 0.1 7.499999999996202  1 0.1 7.599999999996353  1 0.1 7.699999999996505  1 0.1 7.799999999996658  1 0.1 7.899999999996808  1 0.1 7.999999999996962  1 0.1 8.099999999997113  1 0.1 8.199999999997265  1 0.1 8.299999999997418  1 0.1 8.399999999997569  1 0.1 8.499999999997721  1 0.1 8.599999999997873  1 0.1 8.699999999998024  1 0.1 8.799999999998176  1 0.1 8.899999999998329  1 0.1 8.999999999998479  1 0.1 9.099999999998634  1 0.1 9.199999999998786  1 0.1 9.299999999998937  1 0.1 9.399999999999089  1 0.1 9.499999999999241  1 0.1 9.599999999999392  1 0.1 9.699999999999545  1 0.1 9.799999999999697  1 0.1 9.899999999999848  0.55 0.1 
[...]
<PointData  Vectors="f_10"> 
<DataArray  type="Float64"  Name="f_10"  NumberOfComponents="3" format="ascii">0.0000000000000000e+00 0.0000000000000000e+00 0.0000000000000000e+00  0.0000000000000000e+00 0.0000000000000000e+00 0.0000000000000000e+00  0.0000000000000000e+00 0.0000000000000000e+00 0.0000000000000000e+00  0.0000000000000000e+00 0.0000000000000000e+00 0.0000000000000000e+00  0.0000000000000000e+00 0.0000000000000000e+00 0.0000000000000000e+00  0.0000000000000000e+00 0.0000000000000000e+00 0.0000000000000000e+00  0.0000000000000000e+00 0.0000000000000000e+00 0.0000000000000000e+00  0.0000000000000000e+00 0.0000000000000000e+00 0.0000000000000000e+00  0.0000000000000000e+00 0.0000000000000000e+00 0.0000000000000000e+00  0.0000000000000000e+00 0.0000000000000000e+00 0.0000000000000000e+00  0.0000000000000000e+00 0.0000000000000000e+00 0.0000000000000000e+00  0.0000000000000000e+00 0.0000000000000000e+00 0.0000000000000000e+00  -1.6749014681381703e-03 -3.7403834087105787e+00 -2.3807424884129066e-01  -2.2878979579028257e-03 -3.7412501690786102e+00 -2.3785580168049245e-01  -1.7811727590408891e-03 -3.7412492315561514e+00 -1.9009215536315019e-01  -1.8649763731421677e-03 -3.7391287637889672e+00 -1.9041885425800115e-01  -1.2000230544522042e-03 -3.7391368408713066e+00 1.9045689692199511e-01  -1.2811010944251420e-03 -3.7411791105439076e+00 1.9029694682827220e-01  -7.9011201254569619e-04 -3.7411800067389587e+00 2.3805244029459019e-01  -1.3805550044394335e-03 -3.7402287140651094e+00 2.3789762032116374e-01  -1.0723967099577130e-03 -3.7402276429801762e+00 1.9016211598776483e-01  -1.1621460182143551e-03 -3.7390534811752922e+00 1.9043525884078044e-01  -1.9131009377986107e-03 -3.7390521444456168e+00 -1.9044697307047559e-01  -2.0048812964817094e-03 -3.7403827120900979e+00 -1.9031140568295254e-01  0.0000000000000000e+00 0.0000000000000000e+00 0.0000000000000000e+00  0.0000000000000000e+00 0.0000000000000000e+00 0.0000000000000000e+00  0.0000000000000000e+00 0.0000000000000000e+00 0.0000000000000000e+00  0.0000000000000000e+00 0.0000000000000000e+00 0.0000000000000000e+00  0.0000000000000000e+00 0.0000000000000000e+00 0.0000000000000000e+00  0.0000000000000000e+00 0.0000000000000000e+00 0.0000000000000000e+00  0.0000000000000000e+00 0.0000000000000000e+00 0.0000000000000000e+00  0.0000000000000000e+00 0.0000000000000000e+00 0.0000000000000000e+00  0.0000000000000000e+00 0.0000000000000000e+00 0.0000000000000000e+00  0.0000000000000000e+00 0.0000000000000000e+00 0.0000000000000000e+00  0.0000000000000000e+00 0.0000000000000000e+00 0.0000000000000000e+00  0.0000000000000000e+00 0.0000000000000000e+00 0.0000000000000000e+00  0.0000000000000000e+00 0.0000000000000000e+00 0.0000000000000000e+00  0.0000000000000000e+00 0.0000000000000000e+00 0.0000000000000000e+00  0.0000000000000000e+00 0.0000000000000000e+00 0.0000000000000000e+00  0.0000000000000000e+00 0.0000000000000000e+00 0.0000000000000000e+00  0.0000000000000000e+00 0.0000000000000000e+00 0.0000000000000000e+00  0.0000000000000000e+00 0.0000000000000000e+00 0.0000000000000000e+00  0.0000000000000000e+00 0.0000000000000000e+00 0.0000000000000000e+00  0.0000000000000000e+00 0.0000000000000000e+00 0.0000000000000000e+00  0.0000000000000000e+00 0.0000000000000000e+00 0.0000000000000000e+00  0.0000000000000000e+00 0.0000000000000000e+00 0.0000000000000000e+00  0.0000000000000000e+00 0.0000000000000000e+00 0.0000000000000000e+00  0.0000000000000000e+00 0.0000000000000000e+00 0.0000000000000000e+00  0.0000000000000000e+00 0.0000000000000000e+00 0.0000000000000000e+00  0.0000000000000000e+00 0.0000000000000000e+00 0.0000000000000000e+00  0.0000000000000000e+00 0.0000000000000000e+00 0.0000000000000000e+00  0.0000000000000000e+00 0.0000000000000000e+00 0.0000000000000000e+00  0.0000000000000000e+00 0.0000000000000000e+00 0.0000000000000000e+00  0.0000000000000000e+00 0.0000000000000000e+00 0.0000000000000000e+00  0.0000000000000000e+00 0.0000000000000000e+00 0.0000000000000000e+00  0.0000000000000000e+00 0.0000000000000000e+00 0.0000000000000000e+00  0.0000000000000000e+00 0.0000000000000000e+00 0.0000000000000000e+00  0.0000000000000000e+00 0.0000000000000000e+00 0.0000000000000000e+00  0.0000000000000000e+00 0.0000000000000000e+00 0.0000000000000000e+00  0.0000000000000000e+00 0.0000000000000000e+00 0.0000000000000000e+00  0.0000000000000000e+00 0.0000000000000000e+00 0.0000000000000000e+00  0.0000000000000000e+00 0.0000000000000000e+00 0.0000000000000000e+00  0.0000000000000000e+00 0.0000000000000000e+00 0.0000000000000000e+00  0.0000000000000000e+00 0.0000000000000000e+00 0.0000000000000000e+00  0.0000000000000000e+00 0.0000000000000000e+00 0.0000000000000000e+00  0.0000000000000000e+00 0.0000000000000000e+00 0.0000000000000000e+00  0.0000000000000000e+00 0.0000000000000000e+00 0.0000000000000000e+00  0.0000000000000000e+00 0.0000000000000000e+00 0.0000000000000000e+00  0.0000000000000000e+00 0.0000000000000000e+00 0.0000000000000000e+00  0.0000000000000000e+00 0.0000000000000000e+00 0.0000000000000000e+00  0.0000000000000000e+00 0.0000000000000000e+00 0.0000000000000000e+00  0.0000000000000000e+00 0.0000000000000000e+00 0.0000000000000000e+00  -1.6798654239062903e-03 -3.7400450880823928e+00 -2.3807820233097560e-01  -1.6925602990326511e-03 -3.7397026768231916e+00 -2.3808254786302183e-01  -1.7314919734110323e-03 -3.7393750082771628e+00 -2.3808720543055722e-01  -1.8280170329065377e-03 -3.7391328227042790e+00 -2.3808923652955152e-01  -1.9739277467083799e-03 -3.7390835871083228e+00 -2.3809709724279893e-01  -2.1320255066695688e-03 -3.7393099496806288e+00 -2.3804509522889097e-01  -2.2284216176981838e-03 -3.7397289905843345e+00 -2.3800330482573240e-01  -2.2657305487425814e-03 -3.7402210666293878e+00 -2.3795124012225730e-01  -2.2821713511784127e-03 -3.7407312461577025e+00 -2.3790283780149890e-01  -1.7868492758545359e-03 -3.7407865204507571e+00 -1.9014440690060755e-01  -1.7988241600210041e-03 -3.7403172324828882e+00 -1.9020984120755391e-01  -1.8041881402198403e-03 -3.7398729472616088e+00 -1.9027816869608602e-01  -1.8238852179517471e-03 -3.7394524866599603e+00 -1.9035421693303453e-01  -1.8096767729074276e-03 -3.7390828939785230e+00 -1.4281132557835027e-01  -1.7262816895308626e-03 -3.7390434629893767e+00 -9.5200125434322908e-02  -1.6351373546158027e-03 -3.7390234746946556e+00 -4.7589127693473593e-02  -1.5443872741121437e-03 -3.7390144073567528e+00 1.8705365475073702e-05  -1.4543656373571636e-03 -3.7390216455187106e+00 4.7625600929645795e-02  -1.3630683806289813e-03 -3.7390482003631775e+00 9.5236175086396493e-02  -1.2681880870278085e-03 -3.7390856748640173e+00 1.4285032456348867e-01  -1.2287888033018935e-03 -3.7394707071280711e+00 1.9040911696778079e-01  -1.2426921006464639e-03 -3.7398525512725325e+00 1.9036962047239289e-01  -1.2661567795564279e-03 -3.7402840742737999e+00 1.9033294144033028e-01  -1.2748710839792332e-03 -3.7407318605790083e+00 1.9031322925154631e-01  -8.0088013952532176e-04 -3.7406803210206752e+00 2.3806088115152474e-01  -8.1565879603784852e-04 -3.7401853631367232e+00 2.3807809477672612e-01  -8.7102466007904110e-04 -3.7397215973502340e+00 2.3810240782259859e-01  -9.3207999795402025e-04 -3.7393232590438816e+00 2.3810674034750187e-01  -1.0911759797888252e-03 -3.7390967159189548e+00 2.3811259909723398e-01  -1.2314299391799071e-03 -3.7391212358038266e+00 2.3808212416499883e-01  -1.3168958136520936e-03 -3.7393126345651333e+00 2.3801786460879612e-01  -1.3501408820190061e-03 -3.7395928181623739e+00 2.3797132807174834e-01  -1.3717535032507291e-03 -3.7399098349259816e+00 2.3793425628280812e-01  -1.0775083055474940e-03 -3.7399439597767037e+00 1.9020393424933052e-01  -1.0877622905933393e-03 -3.7396563155808349e+00 1.9025501956312801e-01  -1.1062865201548553e-03 -3.7393874224112333e+00 1.9031399073673225e-01  -1.1412859980662526e-03 -3.7391790233682975e+00 1.9038887680132388e-01  -1.2807617171105988e-03 -3.7389952014217589e+00 1.4283183102488284e-01  -1.3721810235163897e-03 -3.7389562495263675e+00 9.5219641356822565e-02  -1.4578325529033542e-03 -3.7389362485653987e+00 4.7607723571819881e-02  -1.5443346146891144e-03 -3.7389262741440645e+00 -1.0732638527975183e-06  -1.6316915634689384e-03 -3.7389329884838509e+00 -4.7608907364794902e-02  -1.7168651460709138e-03 -3.7389606839601695e+00 -9.5220205800708071e-02  -1.7986258668415012e-03 -3.7389981469515789e+00 -1.4283645396236413e-01  -1.9534573218929698e-03 -3.7392024767274759e+00 -1.9040961871827536e-01  -1.9833175178724850e-03 -3.7394688695503424e+00 -1.9037072307915004e-01  -1.9936345629185579e-03 -3.7397715634068271e+00 -1.9033726874509141e-01  -2.0010167251268396e-03 -3.7400805173129257e+00 -1.9032060291164701e-01  -4.3565828281299339e-03 -2.1854433368836759e-03 -8.0831078887229173e-03  -6.5396385540381560e-03 -5.2537496727232194e-03 -1.4628022553801473e-02  -7.8188803295038516e-03 -1.0888829586966341e-02 -2.1345011489834160e-02  -8.2623147847981186e-03 -1.8956970976675359e-02 -2.7684765205429115e-02  -8.4348469351152693e-03 -2.8344152862430701e-02 -3.3749946494301741e-02  -8.4269021157825780e-03 -3.9259400528221876e-02 -3.9791859054531503e-02  -8.1509051540192348e-03 -5.1486783827309437e-02 -4.5912709536969819e-02  -7.9658257957673922e-03 -6.5021409352673309e-02 -5.1646268637209572e-02  -7.7979524437214462e-03 -7.9275752905215977e-02 -5.7586573229502412e-02  -7.5546860494112881e-03 -9.4930922365239451e-02 -6.3499793401160187e-02  -7.3692507127486534e-03 -1.1181563814877779e-01 -6.9146297250171351e-02  -7.1816111149321290e-03 -1.2960795301999842e-01 -7.4533325375684537e-02  -6.9671163688953758e-03 -1.4829618687152335e-01 -8.0052067855279102e-02  -6.7744444440187932e-03 -1.6809053880335895e-01 -8.5414573517536105e-02  -6.6065596965662879e-03 -1.8885510314378126e-01 -9.0533886093076041e-02  -6.4420809427824790e-03 -2.1055982462397041e-01 -9.5849665457023753e-02  -6.3020959221105396e-03 -2.3352770545075549e-01 -1.0094318463269293e-01  -6.0982481924179363e-03 -2.5744696807657153e-01 -1.0583522899777144e-01  -5.9226701801584538e-03 -2.8230847211647442e-01 -1.1052543476242430e-01  -5.7995782092804832e-03 -3.0797672349054839e-01 -1.1518274931736393e-01  -5.6729479723146665e-03 -3.3449988878313713e-01 -1.1970266259227777e-01  -5.4847653194089376e-03 -3.6187732340827056e-01 -1.2410883655770742e-01  -5.3734310119888272e-03 -3.8993250020255033e-01 -1.2833282774332344e-01  -5.2773619642635036e-03 -4.1888110980113052e-01 -1.3247262521244482e-01  -5.1456316977290337e-03 -4.4851049262012355e-01 -1.3657408107406979e-01  -5.0474529582476080e-03 -4.7891655372108582e-01 -1.4064363896309542e-01  -4.9294157444826634e-03 -5.1013799625259115e-01 -1.4458919827504696e-01  -4.8033827637035649e-03 -5.4228167036855368e-01 -1.4829767904506805e-01  -4.6800798506730842e-03 -5.7498463646440046e-01 -1.5192209451357380e-01  -4.5754093142711203e-03 -6.0821403712532962e-01 -1.5542241875397669e-01  -4.5096521701856098e-03 -6.4213423465321062e-01 -1.5894849839870559e-01  -4.4094652516771604e-03 -6.7680517906587434e-01 -1.6231240720317355e-01  -4.3166801528230414e-03 -7.1191656116527036e-01 -1.6551382328628356e-01  -4.3074255237252074e-03 -7.4756007298023752e-01 -1.6873509046160751e-01  -4.1745602265469105e-03 -7.8391703150393444e-01 -1.7183243018805100e-01  -4.0744533663801784e-03 -8.2094784590028136e-01 -1.7484581303380353e-01  -3.9888412155981486e-03 -8.5853673239430572e-01 -1.7772968588704841e-01  -3.9044060459827246e-03 -8.9666354746130739e-01 -1.8056399947397181e-01  -3.7974836310229227e-03 -9.3536516879449350e-01 -1.8333801591317572e-01  -3.6950029223304999e-03 -9.7456530409915976e-01 -1.8591562402343784e-01  -3.6071218156772328e-03 -1.0142616675619691e+00 -1.8854293028635039e-01  -3.5125628089225469e-03 -1.0544914922910096e+00 -1.9101241327910440e-01  -3.4029024252507914e-03 -1.0952062051036322e+00 -1.9337781472630686e-01  -3.3124502572595394e-03 -1.1362050202411145e+00 -1.9562409469838105e-01  -3.2576267539418942e-03 -1.1775549109049592e+00 -1.9786213620025989e-01  -3.2024902672342865e-03 -1.2192863597831669e+00 -1.9992217280254618e-01  -3.1056452759873399e-03 -1.2613830111573756e+00 -2.0203802092913062e-01  -3.0465743127375605e-03 -1.3038299503044406e+00 -2.0400108282148410e-01  -3.0004493848196164e-03 -1.3466457355202648e+00 -2.0591419838656203e-01  -2.9475695009654784e-03 -1.3897501802602785e+00 -2.0773118792104708e-01  -2.9078240666294657e-03 -1.4331893579850512e+00 -2.0952515198629940e-01  -2.8596173048177189e-03 -1.4770237879219705e+00 -2.1121546781809922e-01  -2.7644779545391122e-03 -1.5212229149301506e+00 -2.1284006068154779e-01  -2.7060907533915800e-03 -1.5656206800813239e+00 -2.1441268651890319e-01  -2.6397084992521424e-03 -1.6103882905229103e+00 -2.1594622538693869e-01  -2.5668079893954735e-03 -1.6554056554367194e+00 -2.1738444411747554e-01  -2.5245138214953153e-03 -1.7005935390577407e+00 -2.1869506244039463e-01  -2.4656029961079347e-03 -1.7459565022481027e+00 -2.2000842390818118e-01  -2.4206353447013274e-03 -1.7915810551023863e+00 -2.2127528538192615e-01  -2.3811392040659941e-03 -1.8374482143426503e+00 -2.2243963456008550e-01  -2.3098791775159654e-03 -1.8834979821747553e+00 -2.2357068693428792e-01  -2.2649628838216774e-03 -1.9297622572927216e+00 -2.2465468950569176e-01  -2.2175434619100087e-03 -1.9762215488793120e+00 -2.2570477927261870e-01  -2.1660861423515409e-03 -2.0228192891110175e+00 -2.2663431991465707e-01  -2.1208712144948588e-03 -2.0695330407587829e+00 -2.2753859072402322e-01  -2.0867370752744216e-03 -2.1163455564878935e+00 -2.2841101664551272e-01  -2.0595053661319851e-03 -2.1632905058146816e+00 -2.2922345947962805e-01  -2.0256172644408875e-03 -2.2103807104504756e+00 -2.2999955549571452e-01  -2.0047026799698718e-03 -2.2575704593848340e+00 -2.3071425745697771e-01  -1.9677919636649005e-03 -2.3048816541763881e+00 -2.3140294475027626e-01  -1.9306382451708011e-03 -2.3523201195777870e+00 -2.3205321058240846e-01  -1.9037679085427558e-03 -2.3998408843449863e+00 -2.3265635268480489e-01  -1.8722028719312734e-03 -2.4474551472397694e+00 -2.3321986678174858e-01  -1.8439768327832150e-03 -2.4951475400702163e+00 -2.3372537068760513e-01  -1.8175766171873808e-03 -2.5428988437203790e+00 -2.3420238902860710e-01  -1.7901531696630309e-03 -2.5907086096586847e+00 -2.3464329832505626e-01  -1.7666473635454560e-03 -2.6385549413150429e+00 -2.3504892905036656e-01  -1.7450031494450264e-03 -2.6864375492371755e+00 -2.3542441329730107e-01  -1.7309376391598879e-03 -2.7343484539002070e+00 -2.3575459138443994e-01  -1.7144412640482595e-03 -2.7822783169631689e+00 -2.3606304243925061e-01  -1.6974025606460771e-03 -2.8302289468455344e+00 -2.3634756233936954e-01  -1.6838477201512646e-03 -2.8782079291279361e+00 -2.3660776141640655e-01  -1.6720902221778414e-03 -2.9261998877313191e+00 -2.3683963305036601e-01  -1.6650466335806863e-03 -2.9742036407604027e+00 -2.3704085198983296e-01  -1.6571821258893039e-03 -3.0222055414734661e+00 -2.3721893033807792e-01  -1.6542132767298527e-03 -3.0702012992253254e+00 -2.3738053930057024e-01  -1.6505356244159426e-03 -3.1181881314839428e+00 -2.3751531899903794e-01  -1.6497497086563602e-03 -3.1661696737561598e+00 -2.3764006993583181e-01  -1.6462509745247041e-03 -3.2141463968155533e+00 -2.3774454497826322e-01  -1.6480762695649223e-03 -3.2621015839685703e+00 -2.3782369669280051e-01  -1.6481309337841542e-03 -3.3100357890753780e+00 -2.3789342009441408e-01  -1.6482676057929674e-03 -3.3579447511456815e+00 -2.3794735122614571e-01  -1.6580398411008086e-03 -3.4058136872523694e+00 -2.3798596987326950e-01  -1.6688150378689731e-03 -3.4536559422890134e+00 -2.3801969665312916e-01  -1.6808936666550475e-03 -3.5014716235818231e+00 -2.3804285114280335e-01  -1.6865287159794574e-03 -3.5492759512451793e+00 -2.3806411619332879e-01  -1.6893637076849665e-03 -3.5970670179041124e+00 -2.3807493665116689e-01  -1.6918614365245255e-03 -3.6448487076416289e+00 -2.3807611975907103e-01  -1.6850353163066893e-03 -3.6926155040870436e+00 -2.3807431109688029e-01  4.2927632783845062e-03 -2.0231452711001415e-03 -7.9199750521542107e-03  6.5380223159860638e-03 -5.2064871112185327e-03 -1.4592259733657461e-02  7.7490444099123264e-03 -1.0924774138348661e-02 -2.1321122320213694e-02  8.2579512113453366e-03 -1.8781988290170221e-02 -2.7678098749771268e-02  8.3792531934280823e-03 -2.8293072015262252e-02 -3.3744320298573348e-02  8.3074841510278087e-03 -3.9209533923337210e-02 -3.9587788366910438e-02  8.0500578236703604e-03 -5.1214511760498051e-02 -4.5486129885694816e-02  7.8224582517271834e-03 -6.4537643104544892e-02 -5.1698931883754566e-02  7.6281147132384085e-03 -7.9125750261280298e-02 -5.7639712276178208e-02  7.4239483178277672e-03 -9.5011005444933572e-02 -6.3348147168264993e-02  7.1471171572965245e-03 -1.1186508008269626e-01 -6.9131217632413103e-02  6.9047075099685790e-03 -1.2990358284642306e-01 -7.4688879129359814e-02  6.6406322424886997e-03 -1.4886558528876626e-01 -8.0011251717783533e-02  6.4956648644776249e-03 -1.6862495274256861e-01 -8.5342725635611558e-02  6.3597923504166935e-03 -1.8935847789150265e-01 -9.0606255149614179e-02  6.1284119377564405e-03 -2.1112695426916692e-01 -9.5705836335546052e-02  5.9323666607559826e-03 -2.3401866816293429e-01 -1.0070348030688021e-01  5.8065873275616577e-03 -2.5776334845225396e-01 -1.0572278162728768e-01  5.6452345268441853e-03 -2.8255202976150756e-01 -1.1043368350135087e-01  5.4949402186585863e-03 -3.0815505700710522e-01 -1.1496338435068454e-01  5.3302283949322668e-03 -3.3449429850623469e-01 -1.1933616306594032e-01  5.1867949073852058e-03 -3.6156910845976331e-01 -1.2373418617638761e-01  5.0173680299968595e-03 -3.8952823383920882e-01 -1.2808541978692375e-01  4.8915913047901704e-03 -4.1830298562082008e-01 -1.3231754157437534e-01  4.7072071024041092e-03 -4.4794894234266980e-01 -1.3641275453615026e-01  4.5648360315641142e-03 -4.7839187008824918e-01 -1.4042064730914314e-01  4.4101090302058575e-03 -5.0964096610143306e-01 -1.4433599874035191e-01  4.2960866619106792e-03 -5.4163676325006427e-01 -1.4809837178290164e-01  4.1317543527367466e-03 -5.7434622074665920e-01 -1.5176100179388713e-01  3.9979901406364841e-03 -6.0767120518764506e-01 -1.5534994107848887e-01  3.8442533487103975e-03 -6.4169824972074907e-01 -1.5868792903253690e-01  3.6659394591542021e-03 -6.7630545341883153e-01 -1.6204492278317353e-01  3.4811621854977473e-03 -7.1163340019478927e-01 -1.6547750201200948e-01  3.3534850436353369e-03 -7.4773794941051541e-01 -1.6860552148168362e-01  3.1684114549856723e-03 -7.8432900944862127e-01 -1.7164116122952555e-01  3.0303649723860170e-03 -8.2136927989088282e-01 -1.7457001949872833e-01  2.9073237074874166e-03 -8.5880259993958674e-01 -1.7747024612975743e-01  2.8167158762810608e-03 -8.9688727715450711e-01 -1.8034806713598947e-01  2.6416088755550383e-03 -9.3563652216899662e-01 -1.8311324092551237e-01  2.5244780986855304e-03 -9.7482631205963810e-01 -1.8571632507659946e-01  2.4047387551438797e-03 -1.0145019872790508e+00 -1.8822267871170428e-01  2.3022892369721328e-03 -1.0545501358420131e+00 -1.9071349040532740e-01  2.1361761060828027e-03 -1.0951846339558751e+00 -1.9315566413281135e-01  1.9944418393342328e-03 -1.1362257929837261e+00 -1.9543060003760468e-01  1.8875014527206680e-03 -1.1776338279119527e+00 -1.9755617710160858e-01  1.7711471490853424e-03 -1.2193475249200922e+00 -1.9968236230782169e-01  1.5839510852405131e-03 -1.2615959735395246e+00 -2.0182363883563653e-01  1.4660022098228133e-03 -1.3041969650734777e+00 -2.0376881134861613e-01  1.3602077630356624e-03 -1.3471124926973841e+00 -2.0571644512589254e-01  1.2046144755394703e-03 -1.3903841338517442e+00 -2.0755100704600099e-01  1.1018521639635051e-03 -1.4339649478427829e+00 -2.0934065557808573e-01  9.9881271904749274e-04 -1.4778624498251118e+00 -2.1099613429872674e-01  8.7021784726265430e-04 -1.5220585370417807e+00 -2.1262089222030256e-01  7.7935172323241597e-04 -1.5664687421513068e+00 -2.1414000820166448e-01  6.5889404178076931e-04 -1.6111202807838321e+00 -2.1562796810032495e-01  5.6493173484676792e-04 -1.6559928298429043e+00 -2.1705990742352516e-01  4.8201170365548123e-04 -1.7011067154908837e+00 -2.1842800044177224e-01  3.966149693