<?xml version="1.0"?>
<VTKFile type="UnstructuredGrid"  version="0.1"  >
<UnstructuredGrid>
<Piece  NumberOfPoints="7146" NumberOfCells="21889">
<Points>
<DataArray  type="Float64"  NumberOfComponents="3"  format="ascii">0 0 0  1 0 0  1 0.1 0  0.55 0.1 0  0.55 0.9 0  1 0.9 0  1 1 0  0 1 0  0 0.9 0  0.45 0.9 0  0.45 0.1 0  0 0.1 0  0 0 10  1 0 10  1 0.1 10  0.55 0.1 10  0.55 0.9 10  1 0.9 10  1 1 10  0 1 10  0 0.9 10  0.45 0.9 10  0.45 0.1 10  0 0.1 10  0.09999999999981467 0 0  0.1999999999995579 0 0  0.2999999999992664 0 0  0.3999999999989749 0 0  0.4999999999986943 0 0  0.5999999999989468 0 0  0.69999999999921 0 0  0.7999999999994734 0 0  0.8999999999997368 0 0  0.9100000000002904 0.1 0  0.8200000000005419 0.1 0  0.7300000000004594 0.1 0  0.6400000000001429 0.1 0  0.55 0.1999999999998373 0  0.55 0.2999999999995446 0  0.55 0.3999999999992517 0  0.55 0.4999999999989587 0  0.55 0.5999999999992082 0  0.55 0.6999999999994794 0  0.55 0.7999999999997506 0  0.6399999999997097 0.9 0  0.7299999999994582 0.9 0  0.8199999999995407 0.9 0  0.9099999999998571 0.9 0  0.8999999999995836 1 0  0.7999999999999998 1 0  0.7000000000006934 1 0  0.6000000000013869 1 0  0.5000000000020587 1 0  0.4000000000016644 1 0  0.3000000000012483 1 0  0.2000000000008322 1 0  0.100000000000416 1 0  0.08999999999980426 0.9 0  0.1799999999995429 0.9 0  0.2699999999995232 0.9 0  0.3599999999997603 0.9 0  0.45 0.8000000000001194 0  0.45 0.7000000000004121 0  0.45 0.6000000000007266 0  0.45 0.5000000000010305 0  0.45 0.400000000000781 0  0.45 0.3000000000005206 0  0.45 0.2000000000002494 0  0.3600000000001345 0.1 0  0.2700000000004186 0.1 0  0.180000000000462 0.1 0  0.09000000000023223 0.1 0  0.09999999999981467 0 10  0.1999999999995579 0 10  0.2999999999992664 0 10  0.3999999999989749 0 10  0.4999999999986943 0 10  0.5999999999989468 0 10  0.69999999999921 0 10  0.7999999999994734 0 10  0.8999999999997368 0 10  0.9100000000002904 0.1 10  0.8200000000005419 0.1 10  0.7300000000004594 0.1 10  0.6400000000001429 0.1 10  0.55 0.1999999999998373 10  0.55 0.2999999999995446 10  0.55 0.3999999999992517 10  0.55 0.4999999999989587 10  0.55 0.5999999999992082 10  0.55 0.6999999999994794 10  0.55 0.7999999999997506 10  0.6399999999997097 0.9 10  0.7299999999994582 0.9 10  0.8199999999995407 0.9 10  0.9099999999998571 0.9 10  0.8999999999995836 1 10  0.7999999999999998 1 10  0.7000000000006934 1 10  0.6000000000013869 1 10  0.5000000000020587 1 10  0.4000000000016644 1 10  0.3000000000012483 1 10  0.2000000000008322 1 10  0.100000000000416 1 10  0.08999999999980426 0.9 10  0.1799999999995429 0.9 10  0.2699999999995232 0.9 10  0.3599999999997603 0.9 10  0.45 0.8000000000001194 10  0.45 0.7000000000004121 10  0.45 0.6000000000007266 10  0.45 0.5000000000010305 10  0.45 0.400000000000781 10  0.45 0.3000000000005206 10  0.45 0.2000000000002494 10  0.3600000000001345 0.1 10  0.2700000000004186 0.1 10  0.180000000000462 0.1 10  0.09000000000023223 0.1 10  0 0 0.09999999999992584  0 0 0.199999999999856  0 0 0.2999999999997771  0 0 0.3999999999996677  0 0 0.4999999999995511  0 0 0.5999999999994683  0 0 0.6999999999993983  0 0 0.7999999999993286  0 0 0.8999999999992587  0 0 0.9999999999991888  0 0 1.099999999999119  0 0 1.199999999999033  0 0 1.299999999998852  0 0 1.399999999998576  0 0 1.499999999998284  0 0 1.599999999997992  0 0 1.6999999999977  0 0 1.799999999997408  0 0 1.899999999997116  0 0 1.999999999996825  0 0 2.099999999996533  0 0 2.199999999996241  0 0 2.299999999995949  0 0 2.399999999995657  0 0 2.499999999995365  0 0 2.599999999995073  0 0 2.699999999994782  0 0 2.79999999999449  0 0 2.899999999994198  0 0 2.999999999993906  0 0 3.099999999993614  0 0 3.199999999993322  0 0 3.299999999993029  0 0 3.399999999992738  0 0 3.499999999992446  0 0 3.599999999992154  0 0 3.699999999991863  0 0 3.799999999991571  0 0 3.899999999991278  0 0 3.999999999991022  0 0 4.099999999991035  0 0 4.199999999991187  0 0 4.299999999991338  0 0 4.399999999991491  0 0 4.499999999991642  0 0 4.599999999991795  0 0 4.699999999991947  0 0 4.799999999992099  0 0 4.89999999999225  0 0 4.999999999992403  0 0 5.099999999992555  0 0 5.199999999992706  0 0 5.299999999992858  0 0 5.39999999999301  0 0 5.499999999993161  0 0 5.599999999993313  0 0 5.699999999993466  0 0 5.799999999993618  0 0 5.899999999993771  0 0 5.999999999993922  0 0 6.099999999994074  0 0 6.199999999994227  0 0 6.299999999994378  0 0 6.39999999999453  0 0 6.499999999994682  0 0 6.599999999994833  0 0 6.699999999994986  0 0 6.799999999995138  0 0 6.899999999995289  0 0 6.999999999995442  0 0 7.099999999995594  0 0 7.199999999995747  0 0 7.299999999995897  0 0 7.39999999999605  0 0 7.499999999996202  0 0 7.599999999996353  0 0 7.699999999996505  0 0 7.799999999996658  0 0 7.899999999996808  0 0 7.999999999996962  0 0 8.099999999997113  0 0 8.199999999997265  0 0 8.299999999997418  0 0 8.399999999997569  0 0 8.499999999997721  0 0 8.599999999997873  0 0 8.699999999998024  0 0 8.799999999998176  0 0 8.899999999998329  0 0 8.999999999998479  0 0 9.099999999998634  0 0 9.199999999998786  0 0 9.299999999998937  0 0 9.399999999999089  0 0 9.499999999999241  0 0 9.599999999999392  0 0 9.699999999999545  0 0 9.799999999999697  0 0 9.899999999999848  1 0 0.09999999999992584  1 0 0.199999999999856  1 0 0.2999999999997771  1 0 0.3999999999996677  1 0 0.4999999999995511  1 0 0.5999999999994683  1 0 0.6999999999993983  1 0 0.7999999999993286  1 0 0.8999999999992587  1 0 0.9999999999991888  1 0 1.099999999999119  1 0 1.199999999999033  1 0 1.299999999998852  1 0 1.399999999998576  1 0 1.499999999998284  1 0 1.599999999997992  1 0 1.6999999999977  1 0 1.799999999997408  1 0 1.899999999997116  1 0 1.999999999996825  1 0 2.099999999996533  1 0 2.199999999996241  1 0 2.299999999995949  1 0 2.399999999995657  1 0 2.499999999995365  1 0 2.599999999995073  1 0 2.699999999994782  1 0 2.79999999999449  1 0 2.899999999994198  1 0 2.999999999993906  1 0 3.099999999993614  1 0 3.199999999993322  1 0 3.299999999993029  1 0 3.399999999992738  1 0 3.499999999992446  1 0 3.599999999992154  1 0 3.699999999991863  1 0 3.799999999991571  1 0 3.899999999991278  1 0 3.999999999991022  1 0 4.099999999991035  1 0 4.199999999991187  1 0 4.299999999991338  1 0 4.399999999991491  1 0 4.499999999991642  1 0 4.599999999991795  1 0 4.699999999991947  1 0 4.799999999992099  1 0 4.89999999999225  1 0 4.999999999992403  1 0 5.099999999992555  1 0 5.199999999992706  1 0 5.299999999992858  1 0 5.39999999999301  1 0 5.499999999993161  1 0 5.599999999993313  1 0 5.699999999993466  1 0 5.799999999993618  1 0 5.899999999993771  1 0 5.999999999993922  1 0 6.099999999994074  1 0 6.199999999994227  1 0 6.299999999994378  1 0 6.39999999999453  1 0 6.499999999994682  1 0 6.599999999994833  1 0 6.699999999994986  1 0 6.799999999995138  1 0 6.899999999995289  1 0 6.999999999995442  1 0 7.099999999995594  1 0 7.199999999995747  1 0 7.299999999995897  1 0 7.39999999999605  1 0 7.499999999996202  1 0 7.599999999996353  1 0 7.699999999996505  1 0 7.799999999996658  1 0 7.899999999996808  1 0 7.999999999996962  1 0 8.099999999997113  1 0 8.199999999997265  1 0 8.299999999997418  1 0 8.399999999997569  1 0 8.499999999997721  1 0 8.599999999997873  1 0 8.699999999998024  1 0 8.799999999998176  1 0 8.899999999998329  1 0 8.999999999998479  1 0 9.099999999998634  1 0 9.199999999998786  1 0 9.299999999998937  1 0 9.399999999999089  1 0 9.499999999999241  1 0 9.599999999999392  1 0 9.699999999999545  1 0 9.799999999999697  1 0 9.899999999999848  1 0.1 0.09999999999992584  1 0.1 0.199999999999856  1 0.1 0.2999999999997771  1 0.1 0.3999999999996677  1 0.1 0.4999999999995511  1 0.1 0.5999999999994683  1 0.1 0.6999999999993983  1 0.1 0.7999999999993286  1 0.1 0.8999999999992587  1 0.1 0.9999999999991888  1 0.1 1.099999999999119  1 0.1 1.199999999999033  1 0.1 1.299999999998852  1 0.1 1.399999999998576  1 0.1 1.499999999998284  1 0.1 1.599999999997992  1 0.1 1.6999999999977  1 0.1 1.799999999997408  1 0.1 1.899999999997116  1 0.1 1.999999999996825  1 0.1 2.099999999996533  1 0.1 2.199999999996241  1 0.1 2.299999999995949  1 0.1 2.399999999995657  1 0.1 2.499999999995365  1 0.1 2.599999999995073  1 0.1 2.699999999994782  1 0.1 2.79999999999449  1 0.1 2.899999999994198  1 0.1 2.999999999993906  1 0.1 3.099999999993614  1 0.1 3.199999999993322  1 0.1 3.299999999993029  1 0.1 3.399999999992738  1 0.1 3.499999999992446  1 0.1 3.599999999992154  1 0.1 3.699999999991863  1 0.1 3.799999999991571  1 0.1 3.899999999991278  1 0.1 3.999999999991022  1 0.1 4.099999999991035  1 0.1 4.199999999991187  1 0.1 4.299999999991338  1 0.1 4.399999999991491  1 0.1 4.499999999991642  1 0.1 4.599999999991795  1 0.1 4.699999999991947  1 0.1 4.799999999992099  1 0.1 4.89999999999225  1 0.1 4.999999999992403  1 0.1 5.099999999992555  1 0.1 5.199999999992706  1 0.1 5.299999999992858  1 0.1 5.39999999999301  1 0.1 5.499999999993161  1 0.1 5.599999999993313  1 0.1 5.699999999993466  1 0.1 5.799999999993618  1 0.1 5.899999999993771  1 0.1 5.999999999993922  1 0.1 6.099999999994074  1 0.1 6.199999999994227  1 0.1 6.299999999994378  1 0.1 6.39999999999453  1 0.1 6.499999999994682  1 0.1 6.599999999994833  1 0.1 6.699999999994986  1 0.1 6.799999999995138  1 0.1 6.899999999995289  1 0.1 6.999999999995442  1 0.1 7.099999999995594  1 0.1 7.199999999995747  1 0.1 7.299999999995897  1 0.1 7.39999999999605  1 0.1 7.499999999996202  1 0.1 7.599999999996353  1 0.1 7.699999999996505  1 0.1 7.799999999996658  1 0.1 7.899999999996808  1 0.1 7.999999999996962  1 0.1 8.099999999997113  1 0.1 8.199999999997265  1 0.1 8.299999999997418  1 0.1 8.399999999997569  1 0.1 8.499999999997721  1 0.1 8.599999999997873  1 0.1 8.699999999998024  1 0.1 8.799999999998176  1 0.1 8.899999999998329  1 0.1 8.999999999998479  1 0.1 9.099999999998634  1 0.1 9.199999999998786  1 0.1 9.299999999998937  1 0.1 9.399999999999089  1 0.1 9.499999999999241  1 0.1 9.599999999999392  1 0.1 9.699999999999545  1 0.1 9.799999999999697  1 0.1 9.899999999999848  0.55 0.1 
[...]
<PointData  Vectors="f_10"> 
<DataArray  type="Float64"  Name="f_10"  NumberOfComponents="3" format="ascii">0.0000000000000000e+00 0.0000000000000000e+00 0.0000000000000000e+00  0.0000000000000000e+00 0.0000000000000000e+00 0.0000000000000000e+00  0.0000000000000000e+00 0.0000000000000000e+00 0.0000000000000000e+00  0.0000000000000000e+00 0.0000000000000000e+00 0.0000000000000000e+00  0.0000000000000000e+00 0.0000000000000000e+00 0.0000000000000000e+00  0.0000000000000000e+00 0.0000000000000000e+00 0.0000000000000000e+00  0.0000000000000000e+00 0.0000000000000000e+00 0.0000000000000000e+00  0.0000000000000000e+00 0.0000000000000000e+00 0.0000000000000000e+00  0.0000000000000000e+00 0.0000000000000000e+00 0.0000000000000000e+00  0.0000000000000000e+00 0.0000000000000000e+00 0.0000000000000000e+00  0.0000000000000000e+00 0.0000000000000000e+00 0.0000000000000000e+00  0.0000000000000000e+00 0.0000000000000000e+00 0.0000000000000000e+00  1.5459158373538515e+00 -1.5170989704529778e+00 2.7401066986295283e-02  1.5458938294624169e+00 1.5181888842248301e+00 -2.7444363035518504e-02  1.2436784097203244e+00 1.5181855706722436e+00 -2.9257692504315251e-02  1.2417180862945725e+00 1.5364152159945110e-01 -2.6980466555088286e-03  -1.2414611505336910e+00 1.5344655906016877e-01 2.6308814923977101e-03  -1.2433956953469973e+00 1.5190224584893179e+00 2.9191917198874213e-02  -1.5458306030295277e+00 1.5190249672534335e+00 2.7269757214198817e-02  -1.5457721406791942e+00 -1.5176266367383702e+00 -2.7387154852259319e-02  -1.2433917060219577e+00 -1.5176253216155393e+00 -2.9161445570878429e-02  -1.2416939075216993e+00 -1.5263404333840466e-01 -2.7087839114100084e-03  1.2418634384397809e+00 -1.5250092634185436e-01 2.6840576642959474e-03  1.2436359914924864e+00 -1.5171042843825993e+00 2.9133920636058044e-02  0.0000000000000000e+00 0.0000000000000000e+00 0.0000000000000000e+00  0.0000000000000000e+00 0.0000000000000000e+00 0.0000000000000000e+00  0.0000000000000000e+00 0.0000000000000000e+00 0.0000000000000000e+00  0.0000000000000000e+00 0.0000000000000000e+00 0.0000000000000000e+00  0.0000000000000000e+00 0.0000000000000000e+00 0.0000000000000000e+00  0.0000000000000000e+00 0.0000000000000000e+00 0.0000000000000000e+00  0.0000000000000000e+00 0.0000000000000000e+00 0.0000000000000000e+00  0.0000000000000000e+00 0.0000000000000000e+00 0.0000000000000000e+00  0.0000000000000000e+00 0.0000000000000000e+00 0.0000000000000000e+00  0.0000000000000000e+00 0.0000000000000000e+00 0.0000000000000000e+00  0.0000000000000000e+00 0.0000000000000000e+00 0.0000000000000000e+00  0.0000000000000000e+00 0.0000000000000000e+00 0.0000000000000000e+00  0.0000000000000000e+00 0.0000000000000000e+00 0.0000000000000000e+00  0.0000000000000000e+00 0.0000000000000000e+00 0.0000000000000000e+00  0.0000000000000000e+00 0.0000000000000000e+00 0.0000000000000000e+00  0.0000000000000000e+00 0.0000000000000000e+00 0.0000000000000000e+00  0.0000000000000000e+00 0.0000000000000000e+00 0.0000000000000000e+00  0.0000000000000000e+00 0.0000000000000000e+00 0.0000000000000000e+00  0.0000000000000000e+00 0.0000000000000000e+00 0.0000000000000000e+00  0.0000000000000000e+00 0.0000000000000000e+00 0.0000000000000000e+00  0.0000000000000000e+00 0.0000000000000000e+00 0.0000000000000000e+00  0.0000000000000000e+00 0.0000000000000000e+00 0.0000000000000000e+00  0.0000000000000000e+00 0.0000000000000000e+00 0.0000000000000000e+00  0.0000000000000000e+00 0.0000000000000000e+00 0.0000000000000000e+00  0.0000000000000000e+00 0.0000000000000000e+00 0.0000000000000000e+00  0.0000000000000000e+00 0.0000000000000000e+00 0.0000000000000000e+00  0.0000000000000000e+00 0.0000000000000000e+00 0.0000000000000000e+00  0.0000000000000000e+00 0.0000000000000000e+00 0.0000000000000000e+00  0.0000000000000000e+00 0.0000000000000000e+00 0.0000000000000000e+00  0.0000000000000000e+00 0.0000000000000000e+00 0.0000000000000000e+00  0.0000000000000000e+00 0.0000000000000000e+00 0.0000000000000000e+00  0.0000000000000000e+00 0.0000000000000000e+00 0.0000000000000000e+00  0.0000000000000000e+00 0.0000000000000000e+00 0.0000000000000000e+00  0.0000000000000000e+00 0.0000000000000000e+00 0.0000000000000000e+00  0.0000000000000000e+00 0.0000000000000000e+00 0.0000000000000000e+00  0.0000000000000000e+00 0.0000000000000000e+00 0.0000000000000000e+00  0.0000000000000000e+00 0.0000000000000000e+00 0.0000000000000000e+00  0.0000000000000000e+00 0.0000000000000000e+00 0.0000000000000000e+00  0.0000000000000000e+00 0.0000000000000000e+00 0.0000000000000000e+00  0.0000000000000000e+00 0.0000000000000000e+00 0.0000000000000000e+00  0.0000000000000000e+00 0.0000000000000000e+00 0.0000000000000000e+00  0.0000000000000000e+00 0.0000000000000000e+00 0.0000000000000000e+00  0.0000000000000000e+00 0.0000000000000000e+00 0.0000000000000000e+00  0.0000000000000000e+00 0.0000000000000000e+00 0.0000000000000000e+00  0.0000000000000000e+00 0.0000000000000000e+00 0.0000000000000000e+00  0.0000000000000000e+00 0.0000000000000000e+00 0.0000000000000000e+00  0.0000000000000000e+00 0.0000000000000000e+00 0.0000000000000000e+00  0.0000000000000000e+00 0.0000000000000000e+00 0.0000000000000000e+00  1.5459360993074394e+00 -1.2147920354186550e+00 2.1768313253903129e-02  1.5460393684166449e+00 -9.1214224725298976e-01 1.6196451789227854e-02  1.5462238139664561e+00 -6.0895484560945679e-01 1.0640787037048511e-02  1.5464543957938257e+00 -3.0499713996896644e-01 5.1415165986717871e-03  1.5465343467872041e+00 5.3258595103134420e-04 -2.1280308101621357e-05  1.5464318827063717e+00 3.0615817173673798e-01 -5.0636566299352339e-03  1.5462810379641929e+00 6.1006887566832890e-01 -1.0615313849428048e-02  1.5461686186935011e+00 9.1323368812152872e-01 -1.6290332411438610e-02  1.5459585393476338e+00 1.2159130580599060e+00 -2.1848119061911007e-02  1.2436160185832839e+00 1.2461247093111287e+00 -2.4117807172816426e-02  1.2434132125775821e+00 9.7379648562954879e-01 -1.8826077419385870e-02  1.2431792126448833e+00 7.0105972859662313e-01 -1.3644531437950424e-02  1.2427098761062105e+00 4.2777778439725000e-01 -8.2394831346551678e-03  9.3312228794681662e-01 1.5413994819080298e-01 -2.3379236556025774e-03  6.2337669691591480e-01 1.5531748445637786e-01 -1.5908505528956156e-03  3.1193203453626916e-01 1.5551475398695352e-01 -7.1212320725974609e-04  8.1960339762592472e-05 1.5590331345327169e-01 -1.9371625315611803e-04  -3.1186311420649704e-01 1.5575925733598703e-01 7.7908616428045221e-04  -6.2289534954722647e-01 1.5490146902675969e-01 1.5194115596310746e-03  -9.3280839224861301e-01 1.5430719536323495e-01 2.2014275955360963e-03  -1.2423100952796344e+00 4.2769339713326782e-01 7.9906803076270714e-03  -1.2427365543013003e+00 7.0121585390395968e-01 1.3380722333754603e-02  -1.2431656220564411e+00 9.7424605670784470e-01 1.8811304970299484e-02  -1.2433275136285113e+00 1.2467913912736011e+00 2.4044265162510566e-02  -1.5459198222823674e+00 1.2165177459260241e+00 2.1649714764321683e-02  -1.5460759796376777e+00 9.1368906535708549e-01 1.6099275926329811e-02  -1.5462276892240097e+00 6.1013417190498420e-01 1.0688111054927027e-02  -1.5462370435798602e+00 3.0596917230785009e-01 5.1182704896926669e-03  -1.5463543963708901e+00 3.5280024800002694e-04 7.0441780422907436e-05  -1.5462647144304635e+00 -3.0483332899068138e-01 -5.3281825900194021e-03  -1.5461431983277725e+00 -6.0905079303761156e-01 -1.0720748315308403e-02  -1.5460266322730307e+00 -9.1227200134099506e-01 -1.6325939771013528e-02  -1.5458586564362111e+00 -1.2151618487667910e+00 -2.1812453069204436e-02  -1.2433391341646438e+00 -1.2454099454782162e+00 -2.4011737645995568e-02  -1.2431452663587577e+00 -9.7289908659394519e-01 -1.8761295173526503e-02  -1.2428682548127530e+00 -7.0003361504349348e-01 -1.3469438128576101e-02  -1.2422512995316197e+00 -4.2649620160511792e-01 -8.1211172297501692e-03  -9.3286454538396935e-01 -1.5315809785798470e-01 -2.3452268305714217e-03  -6.2317743642967749e-01 -1.5437380103499737e-01 -1.5949121836800991e-03  -3.1183299872348968e-01 -1.5455941868177656e-01 -7.7012216600774144e-04  8.2710482161374668e-05 -1.5497135966057227e-01 -2.1527737909414807e-04  3.1195749955759206e-01 -1.5477600478315212e-01 7.4287701181560196e-04  6.2309458256905104e-01 -1.5397859999317356e-01 1.5079311754802103e-03  9.3298766678546263e-01 -1.5335078086411280e-01 2.2095863147777281e-03  1.2426679583784708e+00 -4.2670136623227845e-01 8.1305704306375917e-03  1.2431558122304252e+00 -6.9996169106068928e-01 1.3476976471695769e-02  1.2434566648712988e+00 -9.7269634051789078e-01 1.8822405348070840e-02  1.2435604948369359e+00 -1.2449870664361022e+00 2.3998762431148239e-02  7.1352663796396950e-03 -2.7211058538998889e-03 8.3184327906795936e-03  1.4394528714047986e-02 -1.1097623047916184e-02 1.5859856678341736e-02  2.2945590573668909e-02 -2.2346212332560053e-02 2.2572402178071292e-02  3.3271422776073784e-02 -3.5546260203112932e-02 2.9060582333804257e-02  4.4747640313796515e-02 -5.1068604948977823e-02 3.5686134332251589e-02  5.7829619565828584e-02 -6.7491018613124537e-02 4.2097658549835236e-02  7.2354603883396471e-02 -8.4464954670642176e-02 4.8210950181781530e-02  8.7263940168889678e-02 -1.0210986601205513e-01 5.3638605956324192e-02  1.0364461654800555e-01 -1.1919834579579104e-01 5.7550074703752827e-02  1.2180100409259015e-01 -1.3877540813656883e-01 6.1856364494038529e-02  1.4012418139274893e-01 -1.5831906752904742e-01 6.5931498974331440e-02  1.5883180999066815e-01 -1.7902867313923307e-01 6.9849105523500113e-02  1.7853997086875467e-01 -1.9850541516510567e-01 7.3030066646922437e-02  1.9852355613039932e-01 -2.1861795207455231e-01 7.6075248805340778e-02  2.1883866391442749e-01 -2.3970540703459306e-01 7.8537035276076486e-02  2.4070974737932402e-01 -2.5991996509316767e-01 8.0594263194062807e-02  2.6296847555651143e-01 -2.8205387384229602e-01 8.2543724179616487e-02  2.8518639822348130e-01 -3.0387755812057915e-01 8.4410499477650641e-02  3.0720329104846938e-01 -3.2556132301703017e-01 8.5863687030618308e-02  3.2956733509327885e-01 -3.4720024635698188e-01 8.7445106448130305e-02  3.5224701169279404e-01 -3.6992760032878896e-01 8.8920844127771625e-02  3.7448662558507129e-01 -3.9036258891272502e-01 8.9839012241009292e-02  3.9717155371842139e-01 -4.1118958736212385e-01 9.1423729514846591e-02  4.2068644667597421e-01 -4.3422941190836695e-01 9.1054181165253184e-02  4.4406058424986133e-01 -4.5623380782614603e-01 9.1817008619000273e-02  4.6739099023256714e-01 -4.7494067063104084e-01 9.3239963106936746e-02  4.9091813337175266e-01 -4.9638472968708369e-01 9.2953216629556565e-02  5.1415071371964272e-01 -5.1882688689885237e-01 9.2925551044886201e-02  5.3769619385869460e-01 -5.3961964036859689e-01 9.2630675586073824e-02  5.6045568750674080e-01 -5.6285031406673780e-01 9.2200682163358527e-02  5.8375331911505424e-01 -5.8377799990612533e-01 9.1804881101687733e-02  6.0702269888501992e-01 -6.0547068292741557e-01 9.1314067313870872e-02  6.3006113317551149e-01 -6.2696396887650963e-01 9.1017805870787741e-02  6.5253055526415327e-01 -6.5017830763200724e-01 8.9637147151117549e-02  6.7579856768233593e-01 -6.7462577285975833e-01 8.8919812023388084e-02  6.9821944231609190e-01 -6.9732609879381535e-01 8.8079909875628207e-02  7.2106899433812721e-01 -7.2107483485044011e-01 8.7771959465128419e-02  7.4374656349030044e-01 -7.4285171140672701e-01 8.7420376439747594e-02  7.6587914654184475e-01 -7.6683936421196996e-01 8.5912219799497938e-02  7.8746750789861064e-01 -7.9044454688563492e-01 8.4799260078422811e-02  8.0969306102941130e-01 -8.1345036860269060e-01 8.4421236022739599e-02  8.3157209521629594e-01 -8.3496244537045250e-01 8.4149529647134111e-02  8.5239613426301464e-01 -8.5532942506317866e-01 8.3250767906707906e-02  8.7275175890281831e-01 -8.7412187270523212e-01 8.2740908976752778e-02  8.9359716159586844e-01 -8.9268442074032961e-01 8.1696271522887609e-02  9.1290956431613002e-01 -9.1181300983001368e-01 7.9842558215826101e-02  9.3360424838078804e-01 -9.3025649897908047e-01 7.8976886245764905e-02  9.5224567563064832e-01 -9.4865945866169532e-01 7.7145206907483430e-02  9.7142382656181792e-01 -9.6820551196220006e-01 7.6065606947473996e-02  9.9058453724202844e-01 -9.8832689011979735e-01 7.4306858401902778e-02  1.0100566297647693e+00 -1.0072440517844843e+00 7.3469992079405980e-02  1.0278372797763111e+00 -1.0255462304002840e+00 7.2161294874638238e-02  1.0457969039407169e+00 -1.0437903558364603e+00 7.0904047925562430e-02  1.0635195705899145e+00 -1.0598506667268772e+00 7.0460803624476223e-02  1.0808447475187011e+00 -1.0739815774975279e+00 6.9255196423219464e-02  1.0971958728629772e+00 -1.0881723760834956e+00 6.7818556324053716e-02  1.1131287240554562e+00 -1.1023388370330509e+00 6.6492665723430766e-02  1.1287775179428994e+00 -1.1154432982399611e+00 6.4658612193988885e-02  1.1446303883141939e+00 -1.1300832492643982e+00 6.3048343252730996e-02  1.1599433187061430e+00 -1.1460770153839526e+00 6.1130777485058088e-02  1.1753451524723186e+00 -1.1626489654580214e+00 5.9718208869094021e-02  1.1901092573550023e+00 -1.1783222268253304e+00 5.8504002875180872e-02  1.2050957222853074e+00 -1.1935682848612896e+00 5.6844409782224666e-02  1.2188099381085007e+00 -1.2088209311715690e+00 5.5643702036643629e-02  1.2331470610398427e+00 -1.2251025372363793e+00 5.4465490782923329e-02  1.2473068261706852e+00 -1.2397278645181453e+00 5.3151769267068265e-02  1.2611362311891063e+00 -1.2550343957233243e+00 5.2157830085766937e-02  1.2740516182615718e+00 -1.2682572784121879e+00 5.1378669972368146e-02  1.2868651341305291e+00 -1.2815449009458155e+00 5.0124512092534657e-02  1.2992801717313196e+00 -1.2944903047231662e+00 4.8904824323904847e-02  1.3118331744552554e+00 -1.3078650642700551e+00 4.7550027446624260e-02  1.3234406074036953e+00 -1.3191188454249287e+00 4.6488499876580332e-02  1.3353478106125229e+00 -1.3298768319347674e+00 4.5343712900208714e-02  1.3459536763932962e+00 -1.3400741590276353e+00 4.4204925480324002e-02  1.3567460271549745e+00 -1.3505874656836308e+00 4.2759151353039898e-02  1.3672635062582879e+00 -1.3615460193271836e+00 4.1548492212842576e-02  1.3773709245866310e+00 -1.3718732234069972e+00 4.0326688618238848e-02  1.3876655090161596e+00 -1.3820012551344856e+00 3.9468083104396326e-02  1.3966792993981796e+00 -1.3911321901282954e+00 3.8365001013165465e-02  1.4058873489562245e+00 -1.4005993937143846e+00 3.7043724907609724e-02  1.4153557077407233e+00 -1.4094902293329574e+00 3.6031122430343371e-02  1.4242209959968397e+00 -1.4189266145571018e+00 3.4821046479729487e-02  1.4327431160685926e+00 -1.4276583350335443e+00 3.3713613745745087e-02  1.4409915909581994e+00 -1.4371004378307379e+00 3.2825172363839139e-02  1.4491714104159334e+00 -1.4454014994192439e+00 3.2323681074966339e-02  1.4567835670013121e+00 -1.4531281827224438e+00 3.1378688179600898e-02  1.4643158812501982e+00 -1.4599992695966544e+00 3.1017149713292683e-02  1.4713849814136304e+00 -1.4664668691348863e+00 3.0152410309113368e-02  1.4784512287979550e+00 -1.4723357294399277e+00 2.9355989293838886e-02  1.4853015859754304e+00 -1.4784622585613398e+00 2.8921659890563296e-02  1.4920368406370073e+00 -1.4844943058420921e+00 2.8337024487582810e-02  1.4986724210173046e+00 -1.4904857216374114e+00 2.7860137937870112e-02  1.5051367520010890e+00 -1.4955300455834295e+00 2.7619620416286208e-02  1.5111113292497800e+00 -1.5001898701700727e+00 2.7349699694155752e-02  1.5170627689736995e+00 -1.5039624022537352e+00 2.7273011208866698e-02  1.5227845503043496e+00 -1.5074257099336117e+00 2.7086106820676161e-02  1.5285959550295738e+00 -1.5105056943972399e+00 2.7091668000339287e-02  1.5344469410489343e+00 -1.5132682956621795e+00 2.7230428876934266e-02  1.5402716764177677e+00 -1.5153254500687932e+00 2.7358174400253579e-02  7.8052992860378713e-03 4.5594570669141117e-03 -8.2649268305067039e-03  1.4456916992015761e-02 1.3346820314790401e-02 -1.5581947351604262e-02  2.3439603445469321e-02 2.5343744364083452e-02 -2.2523499200081992e-02  3.3964430384004735e-02 3.8956059279798290e-02 -2.9871996625025456e-02  4.5456106462976514e-02 5.3822739913129539e-02 -3.6008980084091723e-02  5.7445545820970785e-02 6.9232387826491923e-02 -4.2439660263531756e-02  7.1302193668933589e-02 8.5445382387285260e-02 -4.8152550915098749e-02  8.7274674025756560e-02 1.0320498155742544e-01 -5.3317239356563184e-02  1.0388728265806708e-01 1.2157736588932226e-01 -5.8150499118295042e-02  1.2139934535881086e-01 1.3917478746394982e-01 -6.3062207398719219e-02  1.3959510832103297e-01 1.5706918763257360e-01 -6.6318826328191194e-02  1.5821061863824185e-01 1.7645066311914873e-01 -7.0160643454804536e-02  1.7734386614187767e-01 1.9634228398165660e-01 -7.2841262228826850e-02  1.9759709378414470e-01 2.1689878366768142e-01 -7.5382724706111931e-02  2.1862766917343313e-01 2.3870438571251965e-01 -7.7995032142683926e-02  2.4001086629428517e-01 2.6074604259086964e-01 -8.0586896699243626e-02  2.6243853747579865e-01 2.8400311878316326e-01 -8.2375172737899613e-02  2.8500630265619470e-01 3.0488753738872804e-01 -8.3987427029271117e-02  3.0682095816328159e-01 3.2706579341609171e-01 -8.5451479152086326e-02  3.2901641154960437e-01 3.4866970344249248e-01 -8.7114476750032935e-02  3.5150692350497076e-01 3.7161918174267095e-01 -8.8310792006522101e-02  3.7453272607948673e-01 3.9407615966542553e-01 -8.9927114836820352e-02  3.9757062704709067e-01 4.1510800367830553e-01 -9.0812613872197065e-02  4.2087778801184639e-01 4.3647345947759342e-01 -9.2154182595487702e-02  4.4411638700203460e-01 4.5819964796259238e-01 -9.3418128755267990e-02  4.6779648747454949e-01 4.7840884000150302e-01 -9.3448005229771869e-02  4.9111830421396563e-01 4.9897592193633572e-01 -9.3686131978051410e-02  5.1399700906278356e-01 5.1909934984285544e-01 -9.2717755782871933e-02  5.3758265884153511e-01 5.4043607832257556e-01 -9.2512632362569375e-02  5.6196747763380517e-01 5.6276275530420006e-01 -9.1661589230983720e-02  5.8429849847879933e-01 5.8555983984075233e-01 -9.1534471129608719e-02  6.0635207791425694e-01 6.0747210144871988e-01 -9.0331048553095872e-02  6.3119829858516707e-01 6.3228787575603052e-01 -9.0152420800693814e-02  6.5369198106593440e-01 6.5577513345388494e-01 -9.0013245468799366e-02  6.7669774277594841e-01 6.8011380213005013e-01 -8.8950514499418834e-02  6.9873314178224366e-01 7.0307784811741425e-01 -8.8376704906649464e-02  7.2149911167773650e-01 7.2667028851477644e-01 -8.8033644249699991e-02  7.4441637792422721e-01 7.4979433178260946e-01 -8.7181174146110124e-02  7.6613771042845324e-01 7.7263227111470012e-01 -8.6582742926302053e-02  7.8781532131226206e-01 7.9338826261740814e-01 -8.5550557049793682e-02  8.0932115534225335e-01 8.1474781722317580e-01 -8.4924844383420767e-02  8.3069294246621928e-01 8.3401224934206086e-01 -8.4735506849144146e-02  8.5193820877580795e-01 8.5319320031011592e-01 -8.3481983923359745e-02  8.7241734920421110e-01 8.7192245614073050e-01 -8.2668295109941531e-02  8.9215280595906654e-01 8.8909623214482159e-01 -8.1734141203559527e-02  9.1210791808154146e-01 9.0833472276489513e-01 -8.0184139524450943e-02  9.3297266504755549e-01 9.2794009423705626e-01 -7.8750150162707297e-02  9.5140995256670180e-01 9.4680136913106749e-01 -7.7086121278023959e-02  9.7120343165660072e-01 9.6537539498011249e-01 -7.5967071552649451e-02  9.9027823898504463e-01 9.8494327182412644e-01 -7.4773685134739337e-02  1.0092436152618882e+00 1.0047200157903056e+00 -7.3306005290087531e-02  1.0268739497140484e+00 1.0240543129462394e+00 -7.2021235498504282e-02  1.0453002692603051e+00 1.0415662016340381e+00 -7.0897847039255085e-02  1.0624512963556414e+00 1.0594661321173682e+00 -6.9639168377113286e-02  1.0794153688473069e+00 1.0755781115593310e+00 -6.8798900501987809e-02  1.0966598122418687e+00 1.0924979197064495e+00 -6.7440988903376506e-02  1.1132368922983322e+00 1.1086273238949327e+00 -6.5812330765217114e-02  1.1301012520446658e+00 1.1233833882017177e+00 -6.4503999673067178e-02  1.1461147092743609e+00 1.1387213499053808e+00 -6.2943474676787722e-02  1.1615789682761817e+00 1.1539585815109683e+00 -6.1412310952793862e-02  1.1765394735278158e+00 1.1692289378790373e+00 -6.0092184216294420e-02  1.1911537425421239e+00 1.1843668408855081e+