<?xml version="1.0"?>
<VTKFile type="UnstructuredGrid"  version="0.1"  >
<UnstructuredGrid>
<Piece  NumberOfPoints="7146" NumberOfCells="21889">
<Points>
<DataArray  type="Float64"  NumberOfComponents="3"  format="ascii">0 0 0  1 0 0  1 0.1 0  0.55 0.1 0  0.55 0.9 0  1 0.9 0  1 1 0  0 1 0  0 0.9 0  0.45 0.9 0  0.45 0.1 0  0 0.1 0  0 0 10  1 0 10  1 0.1 10  0.55 0.1 10  0.55 0.9 10  1 0.9 10  1 1 10  0 1 10  0 0.9 10  0.45 0.9 10  0.45 0.1 10  0 0.1 10  0.09999999999981467 0 0  0.1999999999995579 0 0  0.2999999999992664 0 0  0.3999999999989749 0 0  0.4999999999986943 0 0  0.5999999999989468 0 0  0.69999999999921 0 0  0.7999999999994734 0 0  0.8999999999997368 0 0  0.9100000000002904 0.1 0  0.8200000000005419 0.1 0  0.7300000000004594 0.1 0  0.6400000000001429 0.1 0  0.55 0.1999999999998373 0  0.55 0.2999999999995446 0  0.55 0.3999999999992517 0  0.55 0.4999999999989587 0  0.55 0.5999999999992082 0  0.55 0.6999999999994794 0  0.55 0.7999999999997506 0  0.6399999999997097 0.9 0  0.7299999999994582 0.9 0  0.8199999999995407 0.9 0  0.9099999999998571 0.9 0  0.8999999999995836 1 0  0.7999999999999998 1 0  0.7000000000006934 1 0  0.6000000000013869 1 0  0.5000000000020587 1 0  0.4000000000016644 1 0  0.3000000000012483 1 0  0.2000000000008322 1 0  0.100000000000416 1 0  0.08999999999980426 0.9 0  0.1799999999995429 0.9 0  0.2699999999995232 0.9 0  0.3599999999997603 0.9 0  0.45 0.8000000000001194 0  0.45 0.7000000000004121 0  0.45 0.6000000000007266 0  0.45 0.5000000000010305 0  0.45 0.400000000000781 0  0.45 0.3000000000005206 0  0.45 0.2000000000002494 0  0.3600000000001345 0.1 0  0.2700000000004186 0.1 0  0.180000000000462 0.1 0  0.09000000000023223 0.1 0  0.09999999999981467 0 10  0.1999999999995579 0 10  0.2999999999992664 0 10  0.3999999999989749 0 10  0.4999999999986943 0 10  0.5999999999989468 0 10  0.69999999999921 0 10  0.7999999999994734 0 10  0.8999999999997368 0 10  0.9100000000002904 0.1 10  0.8200000000005419 0.1 10  0.7300000000004594 0.1 10  0.6400000000001429 0.1 10  0.55 0.1999999999998373 10  0.55 0.2999999999995446 10  0.55 0.3999999999992517 10  0.55 0.4999999999989587 10  0.55 0.5999999999992082 10  0.55 0.6999999999994794 10  0.55 0.7999999999997506 10  0.6399999999997097 0.9 10  0.7299999999994582 0.9 10  0.8199999999995407 0.9 10  0.9099999999998571 0.9 10  0.8999999999995836 1 10  0.7999999999999998 1 10  0.7000000000006934 1 10  0.6000000000013869 1 10  0.5000000000020587 1 10  0.4000000000016644 1 10  0.3000000000012483 1 10  0.2000000000008322 1 10  0.100000000000416 1 10  0.08999999999980426 0.9 10  0.1799999999995429 0.9 10  0.2699999999995232 0.9 10  0.3599999999997603 0.9 10  0.45 0.8000000000001194 10  0.45 0.7000000000004121 10  0.45 0.6000000000007266 10  0.45 0.5000000000010305 10  0.45 0.400000000000781 10  0.45 0.3000000000005206 10  0.45 0.2000000000002494 10  0.3600000000001345 0.1 10  0.2700000000004186 0.1 10  0.180000000000462 0.1 10  0.09000000000023223 0.1 10  0 0 0.09999999999992584  0 0 0.199999999999856  0 0 0.2999999999997771  0 0 0.3999999999996677  0 0 0.4999999999995511  0 0 0.5999999999994683  0 0 0.6999999999993983  0 0 0.7999999999993286  0 0 0.8999999999992587  0 0 0.9999999999991888  0 0 1.099999999999119  0 0 1.199999999999033  0 0 1.299999999998852  0 0 1.399999999998576  0 0 1.499999999998284  0 0 1.599999999997992  0 0 1.6999999999977  0 0 1.799999999997408  0 0 1.899999999997116  0 0 1.999999999996825  0 0 2.099999999996533  0 0 2.199999999996241  0 0 2.299999999995949  0 0 2.399999999995657  0 0 2.499999999995365  0 0 2.599999999995073  0 0 2.699999999994782  0 0 2.79999999999449  0 0 2.899999999994198  0 0 2.999999999993906  0 0 3.099999999993614  0 0 3.199999999993322  0 0 3.299999999993029  0 0 3.399999999992738  0 0 3.499999999992446  0 0 3.599999999992154  0 0 3.699999999991863  0 0 3.799999999991571  0 0 3.899999999991278  0 0 3.999999999991022  0 0 4.099999999991035  0 0 4.199999999991187  0 0 4.299999999991338  0 0 4.399999999991491  0 0 4.499999999991642  0 0 4.599999999991795  0 0 4.699999999991947  0 0 4.799999999992099  0 0 4.89999999999225  0 0 4.999999999992403  0 0 5.099999999992555  0 0 5.199999999992706  0 0 5.299999999992858  0 0 5.39999999999301  0 0 5.499999999993161  0 0 5.599999999993313  0 0 5.699999999993466  0 0 5.799999999993618  0 0 5.899999999993771  0 0 5.999999999993922  0 0 6.099999999994074  0 0 6.199999999994227  0 0 6.299999999994378  0 0 6.39999999999453  0 0 6.499999999994682  0 0 6.599999999994833  0 0 6.699999999994986  0 0 6.799999999995138  0 0 6.899999999995289  0 0 6.999999999995442  0 0 7.099999999995594  0 0 7.199999999995747  0 0 7.299999999995897  0 0 7.39999999999605  0 0 7.499999999996202  0 0 7.599999999996353  0 0 7.699999999996505  0 0 7.799999999996658  0 0 7.899999999996808  0 0 7.999999999996962  0 0 8.099999999997113  0 0 8.199999999997265  0 0 8.299999999997418  0 0 8.399999999997569  0 0 8.499999999997721  0 0 8.599999999997873  0 0 8.699999999998024  0 0 8.799999999998176  0 0 8.899999999998329  0 0 8.999999999998479  0 0 9.099999999998634  0 0 9.199999999998786  0 0 9.299999999998937  0 0 9.399999999999089  0 0 9.499999999999241  0 0 9.599999999999392  0 0 9.699999999999545  0 0 9.799999999999697  0 0 9.899999999999848  1 0 0.09999999999992584  1 0 0.199999999999856  1 0 0.2999999999997771  1 0 0.3999999999996677  1 0 0.4999999999995511  1 0 0.5999999999994683  1 0 0.6999999999993983  1 0 0.7999999999993286  1 0 0.8999999999992587  1 0 0.9999999999991888  1 0 1.099999999999119  1 0 1.199999999999033  1 0 1.299999999998852  1 0 1.399999999998576  1 0 1.499999999998284  1 0 1.599999999997992  1 0 1.6999999999977  1 0 1.799999999997408  1 0 1.899999999997116  1 0 1.999999999996825  1 0 2.099999999996533  1 0 2.199999999996241  1 0 2.299999999995949  1 0 2.399999999995657  1 0 2.499999999995365  1 0 2.599999999995073  1 0 2.699999999994782  1 0 2.79999999999449  1 0 2.899999999994198  1 0 2.999999999993906  1 0 3.099999999993614  1 0 3.199999999993322  1 0 3.299999999993029  1 0 3.399999999992738  1 0 3.499999999992446  1 0 3.599999999992154  1 0 3.699999999991863  1 0 3.799999999991571  1 0 3.899999999991278  1 0 3.999999999991022  1 0 4.099999999991035  1 0 4.199999999991187  1 0 4.299999999991338  1 0 4.399999999991491  1 0 4.499999999991642  1 0 4.599999999991795  1 0 4.699999999991947  1 0 4.799999999992099  1 0 4.89999999999225  1 0 4.999999999992403  1 0 5.099999999992555  1 0 5.199999999992706  1 0 5.299999999992858  1 0 5.39999999999301  1 0 5.499999999993161  1 0 5.599999999993313  1 0 5.699999999993466  1 0 5.799999999993618  1 0 5.899999999993771  1 0 5.999999999993922  1 0 6.099999999994074  1 0 6.199999999994227  1 0 6.299999999994378  1 0 6.39999999999453  1 0 6.499999999994682  1 0 6.599999999994833  1 0 6.699999999994986  1 0 6.799999999995138  1 0 6.899999999995289  1 0 6.999999999995442  1 0 7.099999999995594  1 0 7.199999999995747  1 0 7.299999999995897  1 0 7.39999999999605  1 0 7.499999999996202  1 0 7.599999999996353  1 0 7.699999999996505  1 0 7.799999999996658  1 0 7.899999999996808  1 0 7.999999999996962  1 0 8.099999999997113  1 0 8.199999999997265  1 0 8.299999999997418  1 0 8.399999999997569  1 0 8.499999999997721  1 0 8.599999999997873  1 0 8.699999999998024  1 0 8.799999999998176  1 0 8.899999999998329  1 0 8.999999999998479  1 0 9.099999999998634  1 0 9.199999999998786  1 0 9.299999999998937  1 0 9.399999999999089  1 0 9.499999999999241  1 0 9.599999999999392  1 0 9.699999999999545  1 0 9.799999999999697  1 0 9.899999999999848  1 0.1 0.09999999999992584  1 0.1 0.199999999999856  1 0.1 0.2999999999997771  1 0.1 0.3999999999996677  1 0.1 0.4999999999995511  1 0.1 0.5999999999994683  1 0.1 0.6999999999993983  1 0.1 0.7999999999993286  1 0.1 0.8999999999992587  1 0.1 0.9999999999991888  1 0.1 1.099999999999119  1 0.1 1.199999999999033  1 0.1 1.299999999998852  1 0.1 1.399999999998576  1 0.1 1.499999999998284  1 0.1 1.599999999997992  1 0.1 1.6999999999977  1 0.1 1.799999999997408  1 0.1 1.899999999997116  1 0.1 1.999999999996825  1 0.1 2.099999999996533  1 0.1 2.199999999996241  1 0.1 2.299999999995949  1 0.1 2.399999999995657  1 0.1 2.499999999995365  1 0.1 2.599999999995073  1 0.1 2.699999999994782  1 0.1 2.79999999999449  1 0.1 2.899999999994198  1 0.1 2.999999999993906  1 0.1 3.099999999993614  1 0.1 3.199999999993322  1 0.1 3.299999999993029  1 0.1 3.399999999992738  1 0.1 3.499999999992446  1 0.1 3.599999999992154  1 0.1 3.699999999991863  1 0.1 3.799999999991571  1 0.1 3.899999999991278  1 0.1 3.999999999991022  1 0.1 4.099999999991035  1 0.1 4.199999999991187  1 0.1 4.299999999991338  1 0.1 4.399999999991491  1 0.1 4.499999999991642  1 0.1 4.599999999991795  1 0.1 4.699999999991947  1 0.1 4.799999999992099  1 0.1 4.89999999999225  1 0.1 4.999999999992403  1 0.1 5.099999999992555  1 0.1 5.199999999992706  1 0.1 5.299999999992858  1 0.1 5.39999999999301  1 0.1 5.499999999993161  1 0.1 5.599999999993313  1 0.1 5.699999999993466  1 0.1 5.799999999993618  1 0.1 5.899999999993771  1 0.1 5.999999999993922  1 0.1 6.099999999994074  1 0.1 6.199999999994227  1 0.1 6.299999999994378  1 0.1 6.39999999999453  1 0.1 6.499999999994682  1 0.1 6.599999999994833  1 0.1 6.699999999994986  1 0.1 6.799999999995138  1 0.1 6.899999999995289  1 0.1 6.999999999995442  1 0.1 7.099999999995594  1 0.1 7.199999999995747  1 0.1 7.299999999995897  1 0.1 7.39999999999605  1 0.1 7.499999999996202  1 0.1 7.599999999996353  1 0.1 7.699999999996505  1 0.1 7.799999999996658  1 0.1 7.899999999996808  1 0.1 7.999999999996962  1 0.1 8.099999999997113  1 0.1 8.199999999997265  1 0.1 8.299999999997418  1 0.1 8.399999999997569  1 0.1 8.499999999997721  1 0.1 8.599999999997873  1 0.1 8.699999999998024  1 0.1 8.799999999998176  1 0.1 8.899999999998329  1 0.1 8.999999999998479  1 0.1 9.099999999998634  1 0.1 9.199999999998786  1 0.1 9.299999999998937  1 0.1 9.399999999999089  1 0.1 9.499999999999241  1 0.1 9.599999999999392  1 0.1 9.699999999999545  1 0.1 9.799999999999697  1 0.1 9.899999999999848  0.55 0.1 
[...]
<PointData  Vectors="f_10"> 
<DataArray  type="Float64"  Name="f_10"  NumberOfComponents="3" format="ascii">0.0000000000000000e+00 0.0000000000000000e+00 0.0000000000000000e+00  0.0000000000000000e+00 0.0000000000000000e+00 0.0000000000000000e+00  0.0000000000000000e+00 0.0000000000000000e+00 0.0000000000000000e+00  0.0000000000000000e+00 0.0000000000000000e+00 0.0000000000000000e+00  0.0000000000000000e+00 0.0000000000000000e+00 0.0000000000000000e+00  0.0000000000000000e+00 0.0000000000000000e+00 0.0000000000000000e+00  0.0000000000000000e+00 0.0000000000000000e+00 0.0000000000000000e+00  0.0000000000000000e+00 0.0000000000000000e+00 0.0000000000000000e+00  0.0000000000000000e+00 0.0000000000000000e+00 0.0000000000000000e+00  0.0000000000000000e+00 0.0000000000000000e+00 0.0000000000000000e+00  0.0000000000000000e+00 0.0000000000000000e+00 0.0000000000000000e+00  0.0000000000000000e+00 0.0000000000000000e+00 0.0000000000000000e+00  -9.2843700212160883e-04 -1.9137352547710273e+00 -1.2181575189331352e-01  -1.1774567818343463e-03 -1.9143205159856476e+00 -1.2170543620924393e-01  -9.5346634784487946e-04 -1.9143203483309323e+00 -9.7292674700153473e-02  -9.8257770943947667e-04 -1.9133678783272752e+00 -9.7431125350087674e-02  -5.1748809535931395e-04 -1.9133702300914202e+00 9.7446589308040232e-02  -5.4553961659779306e-04 -1.9142885848961311e+00 9.7390656596573005e-02  -3.2841306493373558e-04 -1.9142887956331101e+00 1.2179983161095141e-01  -5.6783593628354509e-04 -1.9136737963673089e+00 1.2172593355211901e-01  -4.7030921543511232e-04 -1.9136736002511423e+00 9.7324533471816424e-02  -5.0181556075245962e-04 -1.9133131645253532e+00 9.7437030288823376e-02  -1.0019117832000778e-03 -1.9133125674373288e+00 -9.7443998946171340e-02  -1.0349001441902447e-03 -1.9137351128807998e+00 -9.7402995139299217e-02  0.0000000000000000e+00 0.0000000000000000e+00 0.0000000000000000e+00  0.0000000000000000e+00 0.0000000000000000e+00 0.0000000000000000e+00  0.0000000000000000e+00 0.0000000000000000e+00 0.0000000000000000e+00  0.0000000000000000e+00 0.0000000000000000e+00 0.0000000000000000e+00  0.0000000000000000e+00 0.0000000000000000e+00 0.0000000000000000e+00  0.0000000000000000e+00 0.0000000000000000e+00 0.0000000000000000e+00  0.0000000000000000e+00 0.0000000000000000e+00 0.0000000000000000e+00  0.0000000000000000e+00 0.0000000000000000e+00 0.0000000000000000e+00  0.0000000000000000e+00 0.0000000000000000e+00 0.0000000000000000e+00  0.0000000000000000e+00 0.0000000000000000e+00 0.0000000000000000e+00  0.0000000000000000e+00 0.0000000000000000e+00 0.0000000000000000e+00  0.0000000000000000e+00 0.0000000000000000e+00 0.0000000000000000e+00  0.0000000000000000e+00 0.0000000000000000e+00 0.0000000000000000e+00  0.0000000000000000e+00 0.0000000000000000e+00 0.0000000000000000e+00  0.0000000000000000e+00 0.0000000000000000e+00 0.0000000000000000e+00  0.0000000000000000e+00 0.0000000000000000e+00 0.0000000000000000e+00  0.0000000000000000e+00 0.0000000000000000e+00 0.0000000000000000e+00  0.0000000000000000e+00 0.0000000000000000e+00 0.0000000000000000e+00  0.0000000000000000e+00 0.0000000000000000e+00 0.0000000000000000e+00  0.0000000000000000e+00 0.0000000000000000e+00 0.0000000000000000e+00  0.0000000000000000e+00 0.0000000000000000e+00 0.0000000000000000e+00  0.0000000000000000e+00 0.0000000000000000e+00 0.0000000000000000e+00  0.0000000000000000e+00 0.0000000000000000e+00 0.0000000000000000e+00  0.0000000000000000e+00 0.0000000000000000e+00 0.0000000000000000e+00  0.0000000000000000e+00 0.0000000000000000e+00 0.0000000000000000e+00  0.0000000000000000e+00 0.0000000000000000e+00 0.0000000000000000e+00  0.0000000000000000e+00 0.0000000000000000e+00 0.0000000000000000e+00  0.0000000000000000e+00 0.0000000000000000e+00 0.0000000000000000e+00  0.0000000000000000e+00 0.0000000000000000e+00 0.0000000000000000e+00  0.0000000000000000e+00 0.0000000000000000e+00 0.0000000000000000e+00  0.0000000000000000e+00 0.0000000000000000e+00 0.0000000000000000e+00  0.0000000000000000e+00 0.0000000000000000e+00 0.0000000000000000e+00  0.0000000000000000e+00 0.0000000000000000e+00 0.0000000000000000e+00  0.0000000000000000e+00 0.0000000000000000e+00 0.0000000000000000e+00  0.0000000000000000e+00 0.0000000000000000e+00 0.0000000000000000e+00  0.0000000000000000e+00 0.0000000000000000e+00 0.0000000000000000e+00  0.0000000000000000e+00 0.0000000000000000e+00 0.0000000000000000e+00  0.0000000000000000e+00 0.0000000000000000e+00 0.0000000000000000e+00  0.0000000000000000e+00 0.0000000000000000e+00 0.0000000000000000e+00  0.0000000000000000e+00 0.0000000000000000e+00 0.0000000000000000e+00  0.0000000000000000e+00 0.0000000000000000e+00 0.0000000000000000e+00  0.0000000000000000e+00 0.0000000000000000e+00 0.0000000000000000e+00  0.0000000000000000e+00 0.0000000000000000e+00 0.0000000000000000e+00  0.0000000000000000e+00 0.0000000000000000e+00 0.0000000000000000e+00  0.0000000000000000e+00 0.0000000000000000e+00 0.0000000000000000e+00  0.0000000000000000e+00 0.0000000000000000e+00 0.0000000000000000e+00  0.0000000000000000e+00 0.0000000000000000e+00 0.0000000000000000e+00  0.0000000000000000e+00 0.0000000000000000e+00 0.0000000000000000e+00  -9.2939332789703801e-04 -1.9136267623719121e+00 -1.2181640163032162e-01  -9.3374484748632008e-04 -1.9135144988293478e+00 -1.2181777435929000e-01  -9.4964433517242956e-04 -1.9134068681344985e+00 -1.2181946712955789e-01  -9.8963214511752027e-04 -1.9133322176753864e+00 -1.2181960990199434e-01  -1.0506862773930145e-03 -1.9133367825180980e+00 -1.2181996692703007e-01  -1.1162192199859827e-03 -1.9134522089773403e+00 -1.2179710039520014e-01  -1.1558924668858322e-03 -1.9136451065801001e+00 -1.2177646339003605e-01  -1.1708789323845998e-03 -1.9138662227597960e+00 -1.2175121328754981e-01  -1.1764093691549870e-03 -1.9140936302793456e+00 -1.2172812379754080e-01  -9.5474654504574511e-04 -1.9141170818508630e+00 -9.7314863701118817e-02  -9.5816950428841943e-04 -1.9139102998806108e+00 -9.7342313165144093e-02  -9.5948489720748575e-04 -1.9137103658089345e+00 -9.7371631623568419e-02  -9.6592449443633438e-04 -1.9135202695406044e+00 -9.7403528251283358e-02  -9.3461921107373513e-04 -1.9133466121129747e+00 -7.3071222069066147e-02  -8.7606204995714144e-04 -1.9133289642875730e+00 -4.8711286640073348e-02  -8.1446358350326781e-04 -1.9133207291090870e+00 -2.4351309387088935e-02  -7.5308169887064685e-04 -1.9133162345250800e+00 7.4164736601917909e-06  -6.9239944795915860e-04 -1.9133191820419972e+00 2.4365908033206429e-02  -6.3139937252033385e-04 -1.9133310024904184e+00 4.8725806010642081e-02  -5.6919555092557381e-04 -1.9133468780646381e+00 7.3087218885860894e-02  -5.2887488114555716e-04 -1.9135246137574051e+00 9.7429648323196991e-02  -5.3349541989740487e-04 -1.9136999772257286e+00 9.7415470967949572e-02  -5.4157963498193556e-04 -1.9138933121230728e+00 9.7402241252102270e-02  -5.4422107512419951e-04 -1.9140918299975032e+00 9.7395287679421363e-02  -3.3111412569088373e-04 -1.9140695331870787e+00 1.2180348145171488e-01  -3.3644500990959858e-04 -1.9138495944138423e+00 1.2181027793385969e-01  -3.5821195072196859e-04 -1.9136397235006859e+00 1.2182091230788759e-01  -3.8418652153101018e-04 -1.9134553243727199e+00 1.2182309274570652e-01  -4.5022168849691475e-04 -1.9133413208658545e+00 1.2182437414208033e-01  -5.0867437882282736e-04 -1.9133276972172386e+00 1.2181073853441503e-01  -5.4428613549729887e-04 -1.9133822361113315e+00 1.2178304428005736e-01  -5.5798991169452841e-04 -1.9134717281724394e+00 1.2176122256218201e-01  -5.6572197431475164e-04 -1.9135737438444111e+00 1.2174338987363864e-01  -4.7140068737917389e-04 -1.9135842555443137e+00 9.7341600437107823e-02  -4.7443983312971664e-04 -1.9134920629223244e+00 9.7362694432655286e-02  -4.8098043712785718e-04 -1.9134053799686164e+00 9.7387257238582228e-02  -4.9394771706335878e-04 -1.9133428459377759e+00 9.7417360937301009e-02  -5.7318607902275974e-04 -1.9132866423819821e+00 7.3078674713867739e-02  -6.3449692360543748e-04 -1.9132692328611383e+00 4.8718043418751522e-02  -6.9357961473585320e-04 -1.9132609781149181e+00 2.4357491480682582e-02  -7.5305642239530330e-04 -1.9132560936447933e+00 -1.7754265695606432e-06  -8.1327568841298842e-04 -1.9132589457784457e+00 -2.4360747252789448e-02  -8.7278672511807720e-04 -1.9132711681925636e+00 -4.8721073295650799e-02  -9.3111090108755166e-04 -1.9132869775456016e+00 -7.3083326798193779e-02  -1.0183850317377048e-03 -1.9133521803477203e+00 -9.7432166911632256e-02  -1.0292954823224747e-03 -1.9134375844900127e+00 -9.7419383096858089e-02  -1.0323908451652839e-03 -1.9135372477014985e+00 -9.7408567988248401e-02  -1.0343037793308844e-03 -1.9136376715169869e+00 -9.7404248953443698e-02  -1.7242351932983875e-03 -1.0065270912003460e-03 -4.1653110683192952e-03  -2.6213956214527806e-03 -2.6496977947916725e-03 -7.5785999957263175e-03  -3.1569351476808181e-03 -5.5558988759589053e-03 -1.1072615780119246e-02  -3.3372206894404558e-03 -9.6767430487207633e-03 -1.4368131039031588e-02  -3.4033055039034078e-03 -1.4472710734394481e-02 -1.7522830096159969e-02  -3.4003298102348103e-03 -2.0052300259968063e-02 -2.0648896729587588e-02  -3.2838767923356622e-03 -2.6298730744500391e-02 -2.3811213018374661e-02  -3.2038292536069792e-03 -3.3204857075615886e-02 -2.6767821861594317e-02  -3.1381121195727321e-03 -4.0496487207258271e-02 -2.9819300937347509e-02  -3.0391165589888454e-03 -4.8499972465878012e-02 -3.2855279728055083e-02  -2.9588491317598005e-03 -5.7139298013764883e-02 -3.5760191363802048e-02  -2.8834694490266362e-03 -6.6255846197051577e-02 -3.8527681481583829e-02  -2.7955103188865905e-03 -7.5835953901809139e-02 -4.1350750986575126e-02  -2.7168625014634411e-03 -8.5972121394598630e-02 -4.4094803595744608e-02  -2.6546155382255964e-03 -9.6600876358478860e-02 -4.6716500088452823e-02  -2.5881164677956929e-03 -1.0772004068139510e-01 -4.9432293860514481e-02  -2.5340561548302036e-03 -1.1946988736384215e-01 -5.2039778228133042e-02  -2.4505771286188320e-03 -1.3171307705745353e-01 -5.4544617110084598e-02  -2.3774306478165975e-03 -1.4443777140456363e-01 -5.6948691054602339e-02  -2.3289043726780942e-03 -1.5758000361496668e-01 -5.9332132269511013e-02  -2.2822076353982142e-03 -1.7116155139920022e-01 -6.1643193944293892e-02  -2.2098755683464836e-03 -1.8517907919642168e-01 -6.3892334723668315e-02  -2.1698392910353488e-03 -1.9954392931182247e-01 -6.6053285401808895e-02  -2.1332149063742535e-03 -2.1435942534181610e-01 -6.8175415685801308e-02  -2.0852286316621243e-03 -2.2953511969739587e-01 -7.0270688332854936e-02  -2.0488944517476938e-03 -2.4511528778429048e-01 -7.2348063615156180e-02  -2.0033684110727966e-03 -2.6109992896800144e-01 -7.4365531216653513e-02  -1.9516646278576572e-03 -2.7755942280852169e-01 -7.6262809082307828e-02  -1.9045910862716166e-03 -2.9430928194070022e-01 -7.8116061401894338e-02  -1.8707664083981626e-03 -3.1132431510472608e-01 -7.9902055827678065e-02  -1.8484101511216150e-03 -3.2869653093219581e-01 -8.1703057101800119e-02  -1.8144662232539481e-03 -3.4644788272894195e-01 -8.3421350736135463e-02  -1.7806100267058007e-03 -3.6443433958975779e-01 -8.5053013017570775e-02  -1.7831563978088689e-03 -3.8268387779988627e-01 -8.6693592965563504e-02  -1.7331091714336204e-03 -4.0129377355713947e-01 -8.8275005709562163e-02  -1.6989002640243904e-03 -4.2025060630820182e-01 -8.9810574409507543e-02  -1.6691191377241732e-03 -4.3949302791151545e-01 -9.1282164721895140e-02  -1.6377393644848750e-03 -4.5900889213157953e-01 -9.2728717149762246e-02  -1.5973212373562790e-03 -4.7881386535365389e-01 -9.4141484716000340e-02  -1.5608675903339545e-03 -4.9887462436961316e-01 -9.5456009587044088e-02  -1.5291379981410265e-03 -5.1919105215314110e-01 -9.6793134391797445e-02  -1.4946655123175209e-03 -5.3978231817495614e-01 -9.8053472186624996e-02  -1.4516982880132324e-03 -5.6062009314955041e-01 -9.9258467222413216e-02  -1.4188487399579080e-03 -5.8161071840477685e-01 -1.0040233889490721e-01  -1.4012474887958376e-03 -6.0278027233713327e-01 -1.0154059386452437e-01  -1.3808401822146712e-03 -6.2414410109119978e-01 -1.0258932425388036e-01  -1.3456279888702852e-03 -6.4569458691632786e-01 -1.0366519873361194e-01  -1.3253245653490973e-03 -6.6742163076777516e-01 -1.0466196442402251e-01  -1.3112802366554361e-03 -6.8933509054163411e-01 -1.0563381754740099e-01  -1.2941284466211629e-03 -7.1140173673200979e-01 -1.0655816537848328e-01  -1.2828024260053883e-03 -7.3364065994414041e-01 -1.0747062430399858e-01  -1.2667672719252798e-03 -7.5607549830828191e-01 -1.0832879357150181e-01  -1.2301724088844802e-03 -7.7869483166642917e-01 -1.0915318392209389e-01  -1.2113030237683911e-03 -8.0142162088457058e-01 -1.0995055443056120e-01  -1.1870922160319222e-03 -8.2433052762720216e-01 -1.1072758155001236e-01  -1.1598004431483220e-03 -8.4736727382229282e-01 -1.1145530479233752e-01  -1.1459387327772783e-03 -8.7049241552941015e-01 -1.1211864491044475e-01  -1.1254932068404809e-03 -8.9370465228594231e-01 -1.1278326902632838e-01  -1.1110827418542755e-03 -9.1704851715340951e-01 -1.1342461800666821e-01  -1.0981210288987526e-03 -9.4051567817766923e-01 -1.1401392066414151e-01  -1.0723561716609537e-03 -9.6407677003426140e-01 -1.1458636891585001e-01  -1.0575647876750547e-03 -9.8774772164411406e-01 -1.1513339958583609e-01  -1.0412030736239109e-03 -1.0115165859504616e+00 -1.1566207483507664e-01  -1.0230578960135086e-03 -1.0353568550324825e+00 -1.1613145095378338e-01  -1.0075025646862172e-03 -1.0592562382138631e+00 -1.1658789752801461e-01  -9.9730259143463525e-04 -1.0832072686336147e+00 -1.1702712022975335e-01  -9.8937918338990144e-04 -1.1072269209238652e+00 -1.1743579580950536e-01  -9.7866786366901577e-04 -1.1313178892525526e+00 -1.1782595618692931e-01  -9.7356407338548042e-04 -1.1554593506585684e+00 -1.1818451450887990e-01  -9.6141071088764920e-04 -1.1796615320623518e+00 -1.1852959400778786e-01  -9.4975993370483664e-04 -1.2039250585936303e+00 -1.1885539244994515e-01  -9.4170401601624727e-04 -1.2282326095410141e+00 -1.1915731656769254e-01  -9.3195182288871266e-04 -1.2525858746712932e+00 -1.1943838648376143e-01  -9.2297865503624397e-04 -1.2769788372544575e+00 -1.1969116213148653e-01  -9.1486702805716432e-04 -1.3014009460582494e+00 -1.1992919144056412e-01  -9.0684660451112822e-04 -1.3258522091082472e+00 -1.2014874760561174e-01  -9.0003919423750124e-04 -1.3503227884226330e+00 -1.2035003967819155e-01  -8.9396695558551387e-04 -1.3748122395822207e+00 -1.2053620769647976e-01  -8.9085442305017080e-04 -1.3993161516669852e+00 -1.2069987844359921e-01  -8.8688914272659224e-04 -1.4238295921298618e+00 -1.2085235852295878e-01  -8.8250397615908908e-04 -1.4483542709940043e+00 -1.2099278312549183e-01  -8.7950200890930038e-04 -1.4728918782683245e+00 -1.2112023527280012e-01  -8.7769263153335243e-04 -1.4974357783169201e+00 -1.2123388860647388e-01  -8.7713873984472776e-04 -1.5219858003081093e+00 -1.2133184321055041e-01  -8.7634226679557284e-04 -1.5465344162099584e+00 -1.2141840871058159e-01  -8.7795049313101981e-04 -1.5710788771032225e+00 -1.2149690525677533e-01  -8.7890385298015330e-04 -1.5956199294848783e+00 -1.2156184147326773e-01  -8.8128050565040156e-04 -1.6201562061877357e+00 -1.2162152574468997e-01  -8.8308003256083766e-04 -1.6446891385365840e+00 -1.2167057068202124e-01  -8.8641326153891147e-04 -1.6692109181347328e+00 -1.2170788568447506e-01  -8.8961168981156931e-04 -1.6937211818983919e+00 -1.2174028432379165e-01  -8.9299205635709261e-04 -1.7182175797700934e+00 -1.2176491352905031e-01  -9.0055026399716816e-04 -1.7426940161432716e+00 -1.2178217372834553e-01  -9.0795916143643514e-04 -1.7671564161511615e+00 -1.2179708261388250e-01  -9.1582796252327877e-04 -1.7916057245272543e+00 -1.2180694868288688e-01  -9.2115255815574781e-04 -1.8160471014406518e+00 -1.2181581295541576e-01  -9.2547613997752095e-04 -1.8404800554042990e+00 -1.2181926369171130e-01  -9.2970193069100214e-04 -1.8649051056327239e+00 -1.2181865396298248e-01  -9.2990177716406846e-04 -1.8893212867302887e+00 -1.2181648981657084e-01  1.6750727864362745e-03 -9.9379500317182349e-04 -4.0984886938431773e-03  2.6068211497305097e-03 -2.7052693186179954e-03 -7.5675850610921998e-03  3.0989943502635381e-03 -5.6637790451249731e-03 -1.1055282145002100e-02  3.3041052055585926e-03 -9.7152949769901235e-03 -1.4367662557235653e-02  3.3464552327247591e-03 -1.4592026308756894e-02 -1.7519848762060711e-02  3.3151788979879867e-03 -2.0181415405929798e-02 -2.0542930198423511e-02  3.1988380798493804e-03 -2.6330638793053408e-02 -2.3589349639161233e-02  3.0974872994594593e-03 -3.3142172403116531e-02 -2.6781549017261506e-02  3.0156054573012942e-03 -4.0602683469571237e-02 -2.9834436321857200e-02  2.9294349365949074e-03 -4.8726013697060054e-02 -3.2771488642982759e-02  2.8101883710411591e-03 -5.7342907270663490e-02 -3.5727557490294964e-02  2.7063960053198615e-03 -6.6559029607145381e-02 -3.8575628207116262e-02  2.5952467573161966e-03 -7.6237055906849524e-02 -4.1301820329013160e-02  2.5376098481980770e-03 -8.6331915627033254e-02 -4.4036098928300647e-02  2.4862751061472373e-03 -9.6933053893321242e-02 -4.6728825513608574e-02  2.3890060539030417e-03 -1.0806689714197622e-01 -4.9342262643389624e-02  2.3067449693123781e-03 -1.1977038951765241e-01 -5.1902426891501076e-02  2.2554744252633561e-03 -1.3192254974248549e-01 -5.4474838808937526e-02  2.1888044107533015e-03 -1.4460905547380998e-01 -5.6888098067077744e-02  2.1262886996478688e-03 -1.5771895359772972e-01 -5.9211389995250094e-02  2.0558832609069095e-03 -1.7121299755170483e-01 -6.1452597699790251e-02  1.9983982824747690e-03 -1.8508527509398526e-01 -6.3702764542540674e-02  1.9283476646682223e-03 -1.9941093084836858e-01 -6.5924695544325757e-02  1.8742844832548582e-03 -2.1415259067166004e-01 -6.8086234198071555e-02  1.7983924080664871e-03 -2.2933782103344161e-01 -7.0178445338379081e-02  1.7393725107981296e-03 -2.4492659176430387e-01 -7.2226341746251130e-02  1.6743782387242162e-03 -2.6092783692169524e-01 -7.4227280747070662e-02  1.6283990878311499e-03 -2.7730960064432914e-01 -7.6149243802052208e-02  1.5576581955106155e-03 -2.9405758895303857e-01 -7.8021297942855034e-02  1.5006835917970478e-03 -3.1112055760719803e-01 -7.9857229285447084e-02  1.4358436967856557e-03 -3.2855011231069015e-01 -8.1567224937036095e-02  1.3586977137285947e-03 -3.4627276398087753e-01 -8.3278779563006208e-02  1.2814055950158916e-03 -3.6435914629636873e-01 -8.5027687964229909e-02  1.2276127010102107e-03 -3.8283962466586086e-01 -8.6626241429716505e-02  1.1505028285433703e-03 -4.0156884331051718e-01 -8.8176230510299686e-02  1.0927264057305805e-03 -4.2053264008141000e-01 -8.9670565830833812e-02  1.0408722336873995e-03 -4.3971081370813764e-01 -9.1149835569966808e-02  1.0013273643553714e-03 -4.5921493344066255e-01 -9.2618690666033510e-02  9.2732398117625697e-04 -4.7905412108002382e-01 -9.4027314945218612e-02  8.7941401001768592e-04 -4.9912151428041818e-01 -9.5353888413299559e-02  8.2871377919768101e-04 -5.1943566153663312e-01 -9.6631245524001513e-02  7.8578918942086046e-04 -5.3994129398806345e-01 -9.7898865603389576e-02  7.1483415439907829e-04 -5.6073986372344731e-01 -9.9140885055553990e-02  6.5628300107562214e-04 -5.8175053454919257e-01 -1.0030123543747821e-01  6.1082337212881835e-04 -6.0294826404385327e-01 -1.0138406846482145e-01  5.6026148844621983e-04 -6.2430180672677160e-01 -1.0246489938700393e-01  4.8038184897788457e-04 -6.4592326221687268e-01 -1.0355474254241652e-01  4.2964119039351012e-04 -6.6772672315933701e-01 -1.0454344421889884e-01  3.8523055288321439e-04 -6.8969067348054658e-01 -1.0553134973021876e-01  3.1783563866300972e-04 -7.1183743979512426e-01 -1.0646558724194836e-01  2.7504697529121344e-04 -7.3414221519484624e-01 -1.0737453594252691e-01  2.3226663993049370e-04 -7.5661116770669268e-01 -1.0821584447320448e-01  1.7794169012197024e-04 -7.7923117837254408e-01 -1.0904203631972911e-01  1.3969073078890678e-04 -8.0196234284122359e-01 -1.0981241099484693e-01  8.9925681874537266e-05 -8.2481397695743408e-01 -1.1056648687048969e-01  5.0840644113364832e-05 -8.4778033555673249e-01 -1.1129190094962521e-01  1.6375531022802741e-05 -8.7086984242654319e-01 -1.1198542482448950e-01  -1.97356213