<?xml version="1.0"?>
<VTKFile type="UnstructuredGrid"  version="0.1"  >
<UnstructuredGrid>
<Piece  NumberOfPoints="7146" NumberOfCells="21889">
<Points>
<DataArray  type="Float64"  NumberOfComponents="3"  format="ascii">0 0 0  1 0 0  1 0.1 0  0.55 0.1 0  0.55 0.9 0  1 0.9 0  1 1 0  0 1 0  0 0.9 0  0.45 0.9 0  0.45 0.1 0  0 0.1 0  0 0 10  1 0 10  1 0.1 10  0.55 0.1 10  0.55 0.9 10  1 0.9 10  1 1 10  0 1 10  0 0.9 10  0.45 0.9 10  0.45 0.1 10  0 0.1 10  0.09999999999981467 0 0  0.1999999999995579 0 0  0.2999999999992664 0 0  0.3999999999989749 0 0  0.4999999999986943 0 0  0.5999999999989468 0 0  0.69999999999921 0 0  0.7999999999994734 0 0  0.8999999999997368 0 0  0.9100000000002904 0.1 0  0.8200000000005419 0.1 0  0.7300000000004594 0.1 0  0.6400000000001429 0.1 0  0.55 0.1999999999998373 0  0.55 0.2999999999995446 0  0.55 0.3999999999992517 0  0.55 0.4999999999989587 0  0.55 0.5999999999992082 0  0.55 0.6999999999994794 0  0.55 0.7999999999997506 0  0.6399999999997097 0.9 0  0.7299999999994582 0.9 0  0.8199999999995407 0.9 0  0.9099999999998571 0.9 0  0.8999999999995836 1 0  0.7999999999999998 1 0  0.7000000000006934 1 0  0.6000000000013869 1 0  0.5000000000020587 1 0  0.4000000000016644 1 0  0.3000000000012483 1 0  0.2000000000008322 1 0  0.100000000000416 1 0  0.08999999999980426 0.9 0  0.1799999999995429 0.9 0  0.2699999999995232 0.9 0  0.3599999999997603 0.9 0  0.45 0.8000000000001194 0  0.45 0.7000000000004121 0  0.45 0.6000000000007266 0  0.45 0.5000000000010305 0  0.45 0.400000000000781 0  0.45 0.3000000000005206 0  0.45 0.2000000000002494 0  0.3600000000001345 0.1 0  0.2700000000004186 0.1 0  0.180000000000462 0.1 0  0.09000000000023223 0.1 0  0.09999999999981467 0 10  0.1999999999995579 0 10  0.2999999999992664 0 10  0.3999999999989749 0 10  0.4999999999986943 0 10  0.5999999999989468 0 10  0.69999999999921 0 10  0.7999999999994734 0 10  0.8999999999997368 0 10  0.9100000000002904 0.1 10  0.8200000000005419 0.1 10  0.7300000000004594 0.1 10  0.6400000000001429 0.1 10  0.55 0.1999999999998373 10  0.55 0.2999999999995446 10  0.55 0.3999999999992517 10  0.55 0.4999999999989587 10  0.55 0.5999999999992082 10  0.55 0.6999999999994794 10  0.55 0.7999999999997506 10  0.6399999999997097 0.9 10  0.7299999999994582 0.9 10  0.8199999999995407 0.9 10  0.9099999999998571 0.9 10  0.8999999999995836 1 10  0.7999999999999998 1 10  0.7000000000006934 1 10  0.6000000000013869 1 10  0.5000000000020587 1 10  0.4000000000016644 1 10  0.3000000000012483 1 10  0.2000000000008322 1 10  0.100000000000416 1 10  0.08999999999980426 0.9 10  0.1799999999995429 0.9 10  0.2699999999995232 0.9 10  0.3599999999997603 0.9 10  0.45 0.8000000000001194 10  0.45 0.7000000000004121 10  0.45 0.6000000000007266 10  0.45 0.5000000000010305 10  0.45 0.400000000000781 10  0.45 0.3000000000005206 10  0.45 0.2000000000002494 10  0.3600000000001345 0.1 10  0.2700000000004186 0.1 10  0.180000000000462 0.1 10  0.09000000000023223 0.1 10  0 0 0.09999999999992584  0 0 0.199999999999856  0 0 0.2999999999997771  0 0 0.3999999999996677  0 0 0.4999999999995511  0 0 0.5999999999994683  0 0 0.6999999999993983  0 0 0.7999999999993286  0 0 0.8999999999992587  0 0 0.9999999999991888  0 0 1.099999999999119  0 0 1.199999999999033  0 0 1.299999999998852  0 0 1.399999999998576  0 0 1.499999999998284  0 0 1.599999999997992  0 0 1.6999999999977  0 0 1.799999999997408  0 0 1.899999999997116  0 0 1.999999999996825  0 0 2.099999999996533  0 0 2.199999999996241  0 0 2.299999999995949  0 0 2.399999999995657  0 0 2.499999999995365  0 0 2.599999999995073  0 0 2.699999999994782  0 0 2.79999999999449  0 0 2.899999999994198  0 0 2.999999999993906  0 0 3.099999999993614  0 0 3.199999999993322  0 0 3.299999999993029  0 0 3.399999999992738  0 0 3.499999999992446  0 0 3.599999999992154  0 0 3.699999999991863  0 0 3.799999999991571  0 0 3.899999999991278  0 0 3.999999999991022  0 0 4.099999999991035  0 0 4.199999999991187  0 0 4.299999999991338  0 0 4.399999999991491  0 0 4.499999999991642  0 0 4.599999999991795  0 0 4.699999999991947  0 0 4.799999999992099  0 0 4.89999999999225  0 0 4.999999999992403  0 0 5.099999999992555  0 0 5.199999999992706  0 0 5.299999999992858  0 0 5.39999999999301  0 0 5.499999999993161  0 0 5.599999999993313  0 0 5.699999999993466  0 0 5.799999999993618  0 0 5.899999999993771  0 0 5.999999999993922  0 0 6.099999999994074  0 0 6.199999999994227  0 0 6.299999999994378  0 0 6.39999999999453  0 0 6.499999999994682  0 0 6.599999999994833  0 0 6.699999999994986  0 0 6.799999999995138  0 0 6.899999999995289  0 0 6.999999999995442  0 0 7.099999999995594  0 0 7.199999999995747  0 0 7.299999999995897  0 0 7.39999999999605  0 0 7.499999999996202  0 0 7.599999999996353  0 0 7.699999999996505  0 0 7.799999999996658  0 0 7.899999999996808  0 0 7.999999999996962  0 0 8.099999999997113  0 0 8.199999999997265  0 0 8.299999999997418  0 0 8.399999999997569  0 0 8.499999999997721  0 0 8.599999999997873  0 0 8.699999999998024  0 0 8.799999999998176  0 0 8.899999999998329  0 0 8.999999999998479  0 0 9.099999999998634  0 0 9.199999999998786  0 0 9.299999999998937  0 0 9.399999999999089  0 0 9.499999999999241  0 0 9.599999999999392  0 0 9.699999999999545  0 0 9.799999999999697  0 0 9.899999999999848  1 0 0.09999999999992584  1 0 0.199999999999856  1 0 0.2999999999997771  1 0 0.3999999999996677  1 0 0.4999999999995511  1 0 0.5999999999994683  1 0 0.6999999999993983  1 0 0.7999999999993286  1 0 0.8999999999992587  1 0 0.9999999999991888  1 0 1.099999999999119  1 0 1.199999999999033  1 0 1.299999999998852  1 0 1.399999999998576  1 0 1.499999999998284  1 0 1.599999999997992  1 0 1.6999999999977  1 0 1.799999999997408  1 0 1.899999999997116  1 0 1.999999999996825  1 0 2.099999999996533  1 0 2.199999999996241  1 0 2.299999999995949  1 0 2.399999999995657  1 0 2.499999999995365  1 0 2.599999999995073  1 0 2.699999999994782  1 0 2.79999999999449  1 0 2.899999999994198  1 0 2.999999999993906  1 0 3.099999999993614  1 0 3.199999999993322  1 0 3.299999999993029  1 0 3.399999999992738  1 0 3.499999999992446  1 0 3.599999999992154  1 0 3.699999999991863  1 0 3.799999999991571  1 0 3.899999999991278  1 0 3.999999999991022  1 0 4.099999999991035  1 0 4.199999999991187  1 0 4.299999999991338  1 0 4.399999999991491  1 0 4.499999999991642  1 0 4.599999999991795  1 0 4.699999999991947  1 0 4.799999999992099  1 0 4.89999999999225  1 0 4.999999999992403  1 0 5.099999999992555  1 0 5.199999999992706  1 0 5.299999999992858  1 0 5.39999999999301  1 0 5.499999999993161  1 0 5.599999999993313  1 0 5.699999999993466  1 0 5.799999999993618  1 0 5.899999999993771  1 0 5.999999999993922  1 0 6.099999999994074  1 0 6.199999999994227  1 0 6.299999999994378  1 0 6.39999999999453  1 0 6.499999999994682  1 0 6.599999999994833  1 0 6.699999999994986  1 0 6.799999999995138  1 0 6.899999999995289  1 0 6.999999999995442  1 0 7.099999999995594  1 0 7.199999999995747  1 0 7.299999999995897  1 0 7.39999999999605  1 0 7.499999999996202  1 0 7.599999999996353  1 0 7.699999999996505  1 0 7.799999999996658  1 0 7.899999999996808  1 0 7.999999999996962  1 0 8.099999999997113  1 0 8.199999999997265  1 0 8.299999999997418  1 0 8.399999999997569  1 0 8.499999999997721  1 0 8.599999999997873  1 0 8.699999999998024  1 0 8.799999999998176  1 0 8.899999999998329  1 0 8.999999999998479  1 0 9.099999999998634  1 0 9.199999999998786  1 0 9.299999999998937  1 0 9.399999999999089  1 0 9.499999999999241  1 0 9.599999999999392  1 0 9.699999999999545  1 0 9.799999999999697  1 0 9.899999999999848  1 0.1 0.09999999999992584  1 0.1 0.199999999999856  1 0.1 0.2999999999997771  1 0.1 0.3999999999996677  1 0.1 0.4999999999995511  1 0.1 0.5999999999994683  1 0.1 0.6999999999993983  1 0.1 0.7999999999993286  1 0.1 0.8999999999992587  1 0.1 0.9999999999991888  1 0.1 1.099999999999119  1 0.1 1.199999999999033  1 0.1 1.299999999998852  1 0.1 1.399999999998576  1 0.1 1.499999999998284  1 0.1 1.599999999997992  1 0.1 1.6999999999977  1 0.1 1.799999999997408  1 0.1 1.899999999997116  1 0.1 1.999999999996825  1 0.1 2.099999999996533  1 0.1 2.199999999996241  1 0.1 2.299999999995949  1 0.1 2.399999999995657  1 0.1 2.499999999995365  1 0.1 2.599999999995073  1 0.1 2.699999999994782  1 0.1 2.79999999999449  1 0.1 2.899999999994198  1 0.1 2.999999999993906  1 0.1 3.099999999993614  1 0.1 3.199999999993322  1 0.1 3.299999999993029  1 0.1 3.399999999992738  1 0.1 3.499999999992446  1 0.1 3.599999999992154  1 0.1 3.699999999991863  1 0.1 3.799999999991571  1 0.1 3.899999999991278  1 0.1 3.999999999991022  1 0.1 4.099999999991035  1 0.1 4.199999999991187  1 0.1 4.299999999991338  1 0.1 4.399999999991491  1 0.1 4.499999999991642  1 0.1 4.599999999991795  1 0.1 4.699999999991947  1 0.1 4.799999999992099  1 0.1 4.89999999999225  1 0.1 4.999999999992403  1 0.1 5.099999999992555  1 0.1 5.199999999992706  1 0.1 5.299999999992858  1 0.1 5.39999999999301  1 0.1 5.499999999993161  1 0.1 5.599999999993313  1 0.1 5.699999999993466  1 0.1 5.799999999993618  1 0.1 5.899999999993771  1 0.1 5.999999999993922  1 0.1 6.099999999994074  1 0.1 6.199999999994227  1 0.1 6.299999999994378  1 0.1 6.39999999999453  1 0.1 6.499999999994682  1 0.1 6.599999999994833  1 0.1 6.699999999994986  1 0.1 6.799999999995138  1 0.1 6.899999999995289  1 0.1 6.999999999995442  1 0.1 7.099999999995594  1 0.1 7.199999999995747  1 0.1 7.299999999995897  1 0.1 7.39999999999605  1 0.1 7.499999999996202  1 0.1 7.599999999996353  1 0.1 7.699999999996505  1 0.1 7.799999999996658  1 0.1 7.899999999996808  1 0.1 7.999999999996962  1 0.1 8.099999999997113  1 0.1 8.199999999997265  1 0.1 8.299999999997418  1 0.1 8.399999999997569  1 0.1 8.499999999997721  1 0.1 8.599999999997873  1 0.1 8.699999999998024  1 0.1 8.799999999998176  1 0.1 8.899999999998329  1 0.1 8.999999999998479  1 0.1 9.099999999998634  1 0.1 9.199999999998786  1 0.1 9.299999999998937  1 0.1 9.399999999999089  1 0.1 9.499999999999241  1 0.1 9.599999999999392  1 0.1 9.699999999999545  1 0.1 9.799999999999697  1 0.1 9.899999999999848  0.55 0.1 
[...]
<PointData  Vectors="f_10"> 
<DataArray  type="Float64"  Name="f_10"  NumberOfComponents="3" format="ascii">0.0000000000000000e+00 0.0000000000000000e+00 0.0000000000000000e+00  0.0000000000000000e+00 0.0000000000000000e+00 0.0000000000000000e+00  0.0000000000000000e+00 0.0000000000000000e+00 0.0000000000000000e+00  0.0000000000000000e+00 0.0000000000000000e+00 0.0000000000000000e+00  0.0000000000000000e+00 0.0000000000000000e+00 0.0000000000000000e+00  0.0000000000000000e+00 0.0000000000000000e+00 0.0000000000000000e+00  0.0000000000000000e+00 0.0000000000000000e+00 0.0000000000000000e+00  0.0000000000000000e+00 0.0000000000000000e+00 0.0000000000000000e+00  0.0000000000000000e+00 0.0000000000000000e+00 0.0000000000000000e+00  0.0000000000000000e+00 0.0000000000000000e+00 0.0000000000000000e+00  0.0000000000000000e+00 0.0000000000000000e+00 0.0000000000000000e+00  0.0000000000000000e+00 0.0000000000000000e+00 0.0000000000000000e+00  3.3036185578221439e-01 -3.2405533816785848e-01 5.8631864291743890e-03  3.3035927684739058e-01 3.2453651250297838e-01 -5.8476402801524007e-03  2.6578553318848092e-01 3.2453567553395235e-01 -6.2277171271149130e-03  2.6534959067387098e-01 3.2948372218439229e-02 -5.6369067645427079e-04  -2.6540225308540971e-01 3.2914856519862985e-02 5.5523228800911364e-04  -2.6583272152841791e-01 3.2470235422311938e-01 6.2266056060601791e-03  -3.3045004843027442e-01 3.2470314857465310e-01 5.8262895999985380e-03  -3.3043755378840672e-01 -3.2417921418298057e-01 -5.8645483006331510e-03  -2.6583332471897919e-01 -3.2417865894127418e-01 -6.2338439172581915e-03  -2.6545169853063427e-01 -3.2500277771600444e-02 -5.8108255361928238e-04  2.6538012396736005e-01 -3.2479012582586904e-02 5.7891482905866258e-04  2.6577966086317611e-01 -3.2405641984949413e-01 6.2222993615826941e-03  0.0000000000000000e+00 0.0000000000000000e+00 0.0000000000000000e+00  0.0000000000000000e+00 0.0000000000000000e+00 0.0000000000000000e+00  0.0000000000000000e+00 0.0000000000000000e+00 0.0000000000000000e+00  0.0000000000000000e+00 0.0000000000000000e+00 0.0000000000000000e+00  0.0000000000000000e+00 0.0000000000000000e+00 0.0000000000000000e+00  0.0000000000000000e+00 0.0000000000000000e+00 0.0000000000000000e+00  0.0000000000000000e+00 0.0000000000000000e+00 0.0000000000000000e+00  0.0000000000000000e+00 0.0000000000000000e+00 0.0000000000000000e+00  0.0000000000000000e+00 0.0000000000000000e+00 0.0000000000000000e+00  0.0000000000000000e+00 0.0000000000000000e+00 0.0000000000000000e+00  0.0000000000000000e+00 0.0000000000000000e+00 0.0000000000000000e+00  0.0000000000000000e+00 0.0000000000000000e+00 0.0000000000000000e+00  0.0000000000000000e+00 0.0000000000000000e+00 0.0000000000000000e+00  0.0000000000000000e+00 0.0000000000000000e+00 0.0000000000000000e+00  0.0000000000000000e+00 0.0000000000000000e+00 0.0000000000000000e+00  0.0000000000000000e+00 0.0000000000000000e+00 0.0000000000000000e+00  0.0000000000000000e+00 0.0000000000000000e+00 0.0000000000000000e+00  0.0000000000000000e+00 0.0000000000000000e+00 0.0000000000000000e+00  0.0000000000000000e+00 0.0000000000000000e+00 0.0000000000000000e+00  0.0000000000000000e+00 0.0000000000000000e+00 0.0000000000000000e+00  0.0000000000000000e+00 0.0000000000000000e+00 0.0000000000000000e+00  0.0000000000000000e+00 0.0000000000000000e+00 0.0000000000000000e+00  0.0000000000000000e+00 0.0000000000000000e+00 0.0000000000000000e+00  0.0000000000000000e+00 0.0000000000000000e+00 0.0000000000000000e+00  0.0000000000000000e+00 0.0000000000000000e+00 0.0000000000000000e+00  0.0000000000000000e+00 0.0000000000000000e+00 0.0000000000000000e+00  0.0000000000000000e+00 0.0000000000000000e+00 0.0000000000000000e+00  0.0000000000000000e+00 0.0000000000000000e+00 0.0000000000000000e+00  0.0000000000000000e+00 0.0000000000000000e+00 0.0000000000000000e+00  0.0000000000000000e+00 0.0000000000000000e+00 0.0000000000000000e+00  0.0000000000000000e+00 0.0000000000000000e+00 0.0000000000000000e+00  0.0000000000000000e+00 0.0000000000000000e+00 0.0000000000000000e+00  0.0000000000000000e+00 0.0000000000000000e+00 0.0000000000000000e+00  0.0000000000000000e+00 0.0000000000000000e+00 0.0000000000000000e+00  0.0000000000000000e+00 0.0000000000000000e+00 0.0000000000000000e+00  0.0000000000000000e+00 0.0000000000000000e+00 0.0000000000000000e+00  0.0000000000000000e+00 0.0000000000000000e+00 0.0000000000000000e+00  0.0000000000000000e+00 0.0000000000000000e+00 0.0000000000000000e+00  0.0000000000000000e+00 0.0000000000000000e+00 0.0000000000000000e+00  0.0000000000000000e+00 0.0000000000000000e+00 0.0000000000000000e+00  0.0000000000000000e+00 0.0000000000000000e+00 0.0000000000000000e+00  0.0000000000000000e+00 0.0000000000000000e+00 0.0000000000000000e+00  0.0000000000000000e+00 0.0000000000000000e+00 0.0000000000000000e+00  0.0000000000000000e+00 0.0000000000000000e+00 0.0000000000000000e+00  0.0000000000000000e+00 0.0000000000000000e+00 0.0000000000000000e+00  0.0000000000000000e+00 0.0000000000000000e+00 0.0000000000000000e+00  0.0000000000000000e+00 0.0000000000000000e+00 0.0000000000000000e+00  0.0000000000000000e+00 0.0000000000000000e+00 0.0000000000000000e+00  3.3036703432666659e-01 -2.5946584940863410e-01 4.6598195604739667e-03  3.3039178463924040e-01 -1.9480134593503434e-01 3.4698788699185543e-03  3.3043282802150187e-01 -1.3001745082421282e-01 2.2832650512011592e-03  3.3048464981200787e-01 -6.5062800811941809e-02 1.1093943817911767e-03  3.3050338330592471e-01 2.2826151806092400e-04 7.0388112217364030e-06  3.3048033379063940e-01 6.5535378163326677e-02 -1.0722054546073497e-03  3.3044679103255897e-01 1.3048491735176451e-01 -2.2579203571052101e-03  3.3042131070676456e-01 1.9527147933390346e-01 -3.4678835035204013e-03  3.3037483038995069e-01 2.5994796011081228e-01 -4.6530677802234686e-03  2.6577165615120030e-01 2.6640489596640782e-01 -5.1296804638112752e-03  2.6572481900479661e-01 2.0821326014968350e-01 -4.0005734155927689e-03  2.6567299530557531e-01 1.4993174593794500e-01 -2.8895186931779779e-03  2.6556814003925516e-01 9.1530812946409912e-02 -1.7370100785464445e-03  1.9940547650297358e-01 3.3057408124846123e-02 -4.8819563090021296e-04  1.3320179734172408e-01 3.3316551369086581e-02 -3.2768449418750376e-04  6.6628730830798136e-02 3.3362066401100676e-02 -1.5037676849065986e-04  -3.4819675196978941e-05 3.3441933007730421e-02 -3.3947394425716384e-05  -6.6715510502413963e-02 3.3414407323139342e-02 1.6774273035728303e-04  -1.3320754188876291e-01 3.3232813257394807e-02 3.2203622837609396e-04  -1.9944754546546173e-01 3.3100837012560981e-02 4.6645110367676357e-04  -2.6559308916525587e-01 9.1520918144553084e-02 1.6960258291884487e-03  -2.6568882127902610e-01 1.4996795641332034e-01 2.8475196204158395e-03  -2.6578262545048909e-01 2.0830635421293039e-01 4.0074305616403308e-03  -2.6581810788701177e-01 2.6653804275969645e-01 5.1258737844575583e-03  -3.3047034417339283e-01 2.6006902583820607e-01 4.6255155170333928e-03  -3.3050378956061155e-01 1.9536583732732321e-01 3.4375370043601915e-03  -3.3054032063918704e-01 1.3050472060165261e-01 2.2771845998071608e-03  -3.3054579571129850e-01 6.5504801527506359e-02 1.0853241065977757e-03  -3.3057091668530897e-01 1.9730398823130171e-04 4.0707759583535264e-06  -3.3055214582180376e-01 -6.5027671037031928e-02 -1.1456223141603874e-03  -3.3052249925496069e-01 -1.3004219853394680e-01 -2.3001139564135069e-03  -3.3049628297151679e-01 -1.9483759211613944e-01 -3.4976113110193980e-03  -3.3045772887325398e-01 -2.5955545378475636e-01 -4.6727838594855225e-03  -2.6582118802276983e-01 -2.6601892014170592e-01 -5.1325948555663980e-03  -2.6577784091150203e-01 -2.0779321546574342e-01 -4.0088917426716305e-03  -2.6571386694620408e-01 -1.4948684071750273e-01 -2.8761751550936084e-03  -2.6557762736612139e-01 -9.1032630982180215e-02 -1.7315926771240729e-03  -1.9945868908782868e-01 -3.2617435289902574e-02 -5.0011476410933848e-04  -1.3326633769136839e-01 -3.2884901658866483e-02 -3.3605355878935447e-04  -6.6710834601818356e-02 -3.2928599892020134e-02 -1.6559983838419318e-04  -3.5196952311111506e-05 -3.3012976980536832e-02 -3.9097042973920350e-05  6.6632834217447007e-02 -3.2975593152265087e-02 1.6333094787425960e-04  1.3314304950116357e-01 -3.2804839656169232e-02 3.2489078559184758e-04  1.9937849861275508e-01 -3.2666067517249611e-02 4.7635146133949581e-04  2.6556035559546615e-01 -9.1072677020891460e-02 1.7353486508976267e-03  2.6567014462850091e-01 -1.4946570245038493e-01 2.8776762029275992e-03  2.6573822434753125e-01 -2.0774107296914121e-01 4.0186448189065156e-03  2.6576274086941998e-01 -2.6591824785020979e-01 5.1246815309325617e-03  1.3607476764517668e-03 -6.7061243566136149e-04 1.8229511528406823e-03  2.8745131821782382e-03 -2.4625346145934696e-03 3.4486397927697564e-03  4.7061978349155348e-03 -4.8829997154362032e-03 4.8995366857352294e-03  6.9124933223729552e-03 -7.7178664283941885e-03 6.2896725885047064e-03  9.3705622600989240e-03 -1.1043696730931871e-02 7.7117661735650479e-03  1.2169404790192908e-02 -1.4553853758762626e-02 9.0817401026010453e-03  1.5281551048027900e-02 -1.8179968712703599e-02 1.0386734590126108e-02  1.8474376883443448e-02 -2.1941425581880020e-02 1.1547105986148163e-02  2.1978173882396281e-02 -2.5590445354604675e-02 1.2399631528408500e-02  2.5847697821099143e-02 -2.9738053368437510e-02 1.3323822271098330e-02  2.9781080421371533e-02 -3.3888178222518932e-02 1.4180632219907594e-02  3.3787945689600252e-02 -3.8301089607746815e-02 1.5012360857705787e-02  3.8009970313761444e-02 -4.2469628019594217e-02 1.5687706758501865e-02  4.2295415417860090e-02 -4.6780721090197014e-02 1.6334049200463888e-02  4.6643152895523003e-02 -5.1285307901387613e-02 1.6859549673997071e-02  5.1311651781931082e-02 -5.5601855228211858e-02 1.7314603288214304e-02  5.6071131510328866e-02 -6.0299596838026402e-02 1.7727500342135806e-02  6.0824009462064621e-02 -6.4940639447200674e-02 1.8122718316763698e-02  6.5538667731430633e-02 -6.9570673012093145e-02 1.8432823380602224e-02  7.0327592895136570e-02 -7.4207456196395238e-02 1.8756836668350992e-02  7.5192507134324960e-02 -7.9068037480414369e-02 1.9077292141219504e-02  7.9969934990849145e-02 -8.3448605536809300e-02 1.9279819485414799e-02  8.4823879013016287e-02 -8.7910978578209550e-02 1.9605752671355333e-02  8.9849378762686033e-02 -9.2817524138084723e-02 1.9537955926984454e-02  9.4852081524210208e-02 -9.7511167236903298e-02 1.9709066887718191e-02  9.9847601356268315e-02 -1.0151348509781144e-01 1.9997712866001174e-02  1.0487877173555751e-01 -1.0610964014184207e-01 1.9912551301543763e-02  1.0985716857555276e-01 -1.1090459151047669e-01 1.9918537420880823e-02  1.1489284416062924e-01 -1.1535656961869342e-01 1.9851217600465331e-02  1.1976935833738668e-01 -1.2031005649568705e-01 1.9766569366155187e-02  1.2476190632845376e-01 -1.2479077407358401e-01 1.9688865304234086e-02  1.2973587227106820e-01 -1.2942165982958834e-01 1.9574100327991010e-02  1.3466354266163919e-01 -1.3403254296340517e-01 1.9500489534401009e-02  1.3948688907561030e-01 -1.3899577470722482e-01 1.9206435732596869e-02  1.4445778182988026e-01 -1.4421612753477300e-01 1.9050490460715930e-02  1.4925511076926784e-01 -1.4906648378581758e-01 1.8880764885366028e-02  1.5414208890285505e-01 -1.5411574410169016e-01 1.8814953541039361e-02  1.5899034653980226e-01 -1.5877645056555392e-01 1.8721762230451133e-02  1.6373652445637327e-01 -1.6390004975811701e-01 1.8400842686083586e-02  1.6834690727516910e-01 -1.6892402146836180e-01 1.8168575753374622e-02  1.7309277570684861e-01 -1.7381211100404689e-01 1.8089316369140785e-02  1.7776345399183618e-01 -1.7838978754571966e-01 1.8025646711422778e-02  1.8222319414379565e-01 -1.8272837679086290e-01 1.7826196998298783e-02  1.8657698507746717e-01 -1.8675544200748595e-01 1.7714808222935599e-02  1.9103584719647618e-01 -1.9072906390779176e-01 1.7481286218326824e-02  1.9517497727782390e-01 -1.9480987062642199e-01 1.7102909634846640e-02  1.9958208558749083e-01 -1.9874090618556095e-01 1.6913160918365765e-02  2.0357836923741371e-01 -2.0266350085398283e-01 1.6515193362185879e-02  2.0767991713202830e-01 -2.0682817497354106e-01 1.6275630129134556e-02  2.1176268754065020e-01 -2.1111553282646842e-01 1.5897185988858187e-02  2.1591626247138193e-01 -2.1515380605343579e-01 1.5714609837088979e-02  2.1972255082193734e-01 -2.1907626115127771e-01 1.5430367022154019e-02  2.2355988097466611e-01 -2.2298762262050989e-01 1.5158365952680320e-02  2.2735692398548768e-01 -2.2644087859754716e-01 1.5063079703663024e-02  2.3105943387322453e-01 -2.2948389088475546e-01 1.4800570567198797e-02  2.3456510283979301e-01 -2.3254255790462855e-01 1.4496203952645507e-02  2.3796879806001742e-01 -2.3558356071936426e-01 1.4212179124190276e-02  2.4132086678160117e-01 -2.3840521449685473e-01 1.3820258491940685e-02  2.4470111269134701e-01 -2.4154832454531910e-01 1.3470818639333861e-02  2.4797806422496832e-01 -2.4496796700077522e-01 1.3072797070203260e-02  2.5126515922216131e-01 -2.4850183940691584e-01 1.2765164197880149e-02  2.5441750933291990e-01 -2.5185284154065740e-01 1.2505468136825485e-02  2.5761870904471607e-01 -2.5511034685652628e-01 1.2161567172389438e-02  2.6055111592936026e-01 -2.5836601884817118e-01 1.1900894472856601e-02  2.6360795119674107e-01 -2.6182310546185500e-01 1.1652905838034413e-02  2.6662282330693537e-01 -2.6492600268455863e-01 1.1376119759228287e-02  2.6956646861809519e-01 -2.6816068509258878e-01 1.1163085086944547e-02  2.7232971759955782e-01 -2.7097056876454501e-01 1.0987070894551672e-02  2.7506602637701616e-01 -2.7379483248474135e-01 1.0718594464294720e-02  2.7771824362520181e-01 -2.7654861782961043e-01 1.0452590031782881e-02  2.8038896535797986e-01 -2.7937996903328272e-01 1.0160867976125709e-02  2.8286946002904328e-01 -2.8178461420638024e-01 9.9393560035893405e-03  2.8540334359241143e-01 -2.8407762132809755e-01 9.6945819568994875e-03  2.8767211698551531e-01 -2.8625700337015525e-01 9.4439343687611026e-03  2.8997765928558716e-01 -2.8850411803621190e-01 9.1372247803107598e-03  2.9221672057127718e-01 -2.9083859929649541e-01 8.8739094229647614e-03  2.9437745757666928e-01 -2.9304405640012071e-01 8.6158771262472688e-03  2.9657086400840244e-01 -2.9521411476951809e-01 8.4259062968910330e-03  2.9850104072919342e-01 -2.9717920150031296e-01 8.1885658200727737e-03  3.0046934821801108e-01 -2.9921241378075686e-01 7.9136313853096843e-03  3.0248889563323383e-01 -3.0112119162224232e-01 7.6997330777150942e-03  3.0438084422034689e-01 -3.0313369161704773e-01 7.4457339906132212e-03  3.0619624706909665e-01 -3.0499263369924784e-01 7.2093136210130632e-03  3.0795745831363369e-01 -3.0699071408426404e-01 7.0222753822761748e-03  3.0970253869419623e-01 -3.0875574132728312e-01 6.9081018531551401e-03  3.1132939219751427e-01 -3.1040687835987912e-01 6.7087723816657823e-03  3.1294083090167807e-01 -3.1188021520364151e-01 6.6264565399003590e-03  3.1445430020831083e-01 -3.1326599087649321e-01 6.4453511268845109e-03  3.1596320209390777e-01 -3.1452204940270656e-01 6.2768087469010315e-03  3.1742445038614181e-01 -3.1582936279537782e-01 6.1805959130203109e-03  3.1885861685691058e-01 -3.1711812946353335e-01 6.0531571381357077e-03  3.2027506571053654e-01 -3.1839432496892162e-01 5.9536467706632337e-03  3.2165381282499855e-01 -3.1947567040003272e-01 5.9002791004680935e-03  3.2293051048312993e-01 -3.2047102673324585e-01 5.8442860551426992e-03  3.2420275867070847e-01 -3.2127950169522840e-01 5.8291332009230076e-03  3.2542394980941525e-01 -3.2202053207300091e-01 5.7899196237549706e-03  3.2666450947672104e-01 -3.2267574521376480e-01 5.7935986105476451e-03  3.2791232804714560e-01 -3.2325633478331423e-01 5.8248822767633110e-03  3.2915506524375004e-01 -3.2368679602245437e-01 5.8536352143932309e-03  1.5097247074478176e-03 1.0514662704406998e-03 -1.8064058817485883e-03  2.9045608787281059e-03 2.9285351934554590e-03 -3.3822245469319798e-03  4.8020341752695707e-03 5.4874653174657355e-03 -4.8822323539621853e-03  7.0475987841628210e-03 8.4051579534168887e-03 -6.4470975762557408e-03  9.5137461222153073e-03 1.1592763538547858e-02 -7.7682320774877444e-03  1.2085691253062286e-02 1.4904696555739120e-02 -9.1386250183913276e-03  1.5057502764771184e-02 1.8377660788713886e-02 -1.0370382650106293e-02  1.8479842146404038e-02 2.2164607410986262e-02 -1.1476693502178857e-02  2.2031264377751953e-02 2.6082191363463458e-02 -1.2508057028280836e-02  2.5772897976032470e-02 2.9857941477832276e-02 -1.3549637524937699e-02  2.9674220569035122e-02 3.3685961718422301e-02 -1.4250565262384310e-02  3.3674185684082279e-02 3.7831579639047395e-02 -1.5064920731884902e-02  3.7769685578809338e-02 4.2091838816818009e-02 -1.5638450534632434e-02  4.2105588858788394e-02 4.6481881772128940e-02 -1.6196082812267185e-02  4.6605433050826831e-02 5.1114774680828562e-02 -1.6760710134196818e-02  5.1180326382034715e-02 5.5781523817232781e-02 -1.7307041417272091e-02  5.5958102508160412e-02 6.0690724046993744e-02 -1.7699150877698196e-02  6.0776099044830299e-02 6.5118523491276462e-02 -1.8039879808473790e-02  6.5452351470257589e-02 6.9831293359697483e-02 -1.8347299304581489e-02  7.0203796038356650e-02 7.4447691948428277e-02 -1.8682651700256080e-02  7.5023079496711456e-02 7.9350574338040394e-02 -1.8944885595996719e-02  7.9957871288176219e-02 8.4155549016065576e-02 -1.9275787281849466e-02  8.4892304909466296e-02 8.8674187078688987e-02 -1.9465578158094379e-02  8.9887343993597768e-02 9.3257377188164917e-02 -1.9734794032315317e-02  9.4868587878561131e-02 9.7919879042342090e-02 -1.9994652423774302e-02  9.9930197608281826e-02 1.0227631273723427e-01 -2.0005063475477394e-02  1.0492586125630671e-01 1.0670291843438130e-01 -2.0058306499761067e-02  1.0983301633914552e-01 1.1103829185006697e-01 -1.9864576426995493e-02  1.1489543917184915e-01 1.1561632292923278e-01 -1.9825734850814590e-02  1.2010241826638578e-01 1.2038439197848307e-01 -1.9643090170223792e-02  1.2489094073350783e-01 1.2526389201870342e-01 -1.9610409083743483e-02  1.2962746953807111e-01 1.2994956224809520e-01 -1.9371724235686293e-02  1.3491336746238139e-01 1.3521376361883763e-01 -1.9317914709801945e-02  1.3972894979855216e-01 1.4022159509945498e-01 -1.9281564762804775e-02  1.4464232319376008e-01 1.4538666289280019e-01 -1.9057353637679991e-02  1.4936277354114993e-01 1.5027657161947663e-01 -1.8932698470200703e-02  1.5422703471185134e-01 1.5528049479450934e-01 -1.8855066158668311e-02  1.5911730340264876e-01 1.6019934499509636e-01 -1.8660495259153344e-02  1.6377422713275777e-01 1.6508618324035190e-01 -1.8522418683475587e-02  1.6840289040143211e-01 1.6954283946573895e-01 -1.8310586302003735e-02  1.7300985583240769e-01 1.7412011631649829e-01 -1.8170809525272526e-02  1.7758900549432652e-01 1.7826731525181119e-01 -1.8118747793342813e-02  1.8213908632484760e-01 1.8238883059758820e-01 -1.7852952019284898e-02  1.8652564587560722e-01 1.8641872445383945e-01 -1.7683178921015834e-02  1.9075336025988163e-01 1.9010588993635799e-01 -1.7473295332710546e-02  1.9502242349523924e-01 1.9421858502191494e-01 -1.7149139552536889e-02  1.9947380583783361e-01 1.9840121411238618e-01 -1.6834171782889523e-02  2.0342412500370138e-01 2.0243483763781070e-01 -1.6487942883563644e-02  2.0764992874201912e-01 2.0639705089723895e-01 -1.6247517430658904e-02  2.1172070177556007e-01 2.1055673149780849e-01 -1.5981957181759401e-02  2.1576288812850763e-01 2.1475817164567496e-01 -1.5666073487571076e-02  2.1953302164228422e-01 2.1887114899109034e-01 -1.5391509753088787e-02  2.2346583746242560e-01 2.2261534900822499e-01 -1.5150282004144590e-02  2.2713480714556405e-01 2.2643175956787676e-01 -1.4875613507566270e-02  2.3076427212262060e-01 2.2988488581212335e-01 -1.4688077096375896e-02  2.3443522946752660e-01 2.3349517270038858e-01 -1.4392854075743686e-02  2.3798096483277201e-01 2.3693896963611630e-01 -1.4061705367265448e-02  2.4158419552158350e-01 2.4009478963435538e-01 -1.3777035103622073e-02  2.4500067345582713e-01 2.4337062668222981e-01 -1.3436745062098090e-02  2.4830531729678981e-01 2.4663544670727075e-01 -1.3107085113110921e-02  2.5151410441439476e-01 2.4991901855293172e-01 -1.2820688149232783e-02  2.5463733812396333e-01 2.5317448778117230e