<?xml version="1.0"?>
<VTKFile type="UnstructuredGrid"  version="0.1"  >
<UnstructuredGrid>
<Piece  NumberOfPoints="7054" NumberOfCells="21299">
<Points>
<DataArray  type="Float64"  NumberOfComponents="3"  format="ascii">0 0 0  1 0 0  1 1 0  0.9 1 0  0.9 0.1 0  0.1 0.1 0  0.1 1 0  0 1 0  0 0 10  1 0 10  1 1 10  0.9 1 10  0.9 0.1 10  0.1 0.1 10  0.1 1 10  0 1 10  0.09999999999981467 0 0  0.1999999999995579 0 0  0.2999999999992664 0 0  0.3999999999989749 0 0  0.4999999999986943 0 0  0.5999999999989468 0 0  0.69999999999921 0 0  0.7999999999994734 0 0  0.8999999999997368 0 0  1 0.09999999999981467 0  1 0.1999999999995579 0  1 0.2999999999992664 0  1 0.3999999999989749 0  1 0.4999999999986943 0  1 0.5999999999989468 0  1 0.69999999999921 0  1 0.7999999999994734 0  1 0.8999999999997368 0  0.9 0.9000000000001855 0  0.9 0.8000000000005446 0  0.9 0.7000000000008531 0  0.9 0.6000000000010675 0  0.9 0.5000000000010529 0  0.9 0.4000000000007736 0  0.9 0.300000000000516 0  0.9 0.2000000000002583 0  0.8000000000001194 0.1 0  0.7000000000004121 0.1 0  0.6000000000007266 0.1 0  0.5000000000010305 0.1 0  0.400000000000781 0.1 0  0.3000000000005206 0.1 0  0.2000000000002494 0.1 0  0.1 0.1999999999998319 0  0.1 0.2999999999995319 0  0.1 0.3999999999992158 0  0.1 0.4999999999989815 0  0.1 0.5999999999989688 0  0.1 0.6999999999992427 0  0.1 0.7999999999994949 0  0.1 0.8999999999997471 0  0 0.8999999999995836 0  0 0.7999999999999998 0  0 0.7000000000006934 0  0 0.6000000000013869 0  0 0.5000000000020587 0  0 0.4000000000016644 0  0 0.3000000000012483 0  0 0.2000000000008322 0  0 0.100000000000416 0  0.09999999999981467 0 10  0.1999999999995579 0 10  0.2999999999992664 0 10  0.3999999999989749 0 10  0.4999999999986943 0 10  0.5999999999989468 0 10  0.69999999999921 0 10  0.7999999999994734 0 10  0.8999999999997368 0 10  1 0.09999999999981467 10  1 0.1999999999995579 10  1 0.2999999999992664 10  1 0.3999999999989749 10  1 0.4999999999986943 10  1 0.5999999999989468 10  1 0.69999999999921 10  1 0.7999999999994734 10  1 0.8999999999997368 10  0.9 0.9000000000001855 10  0.9 0.8000000000005446 10  0.9 0.7000000000008531 10  0.9 0.6000000000010675 10  0.9 0.5000000000010529 10  0.9 0.4000000000007736 10  0.9 0.300000000000516 10  0.9 0.2000000000002583 10  0.8000000000001194 0.1 10  0.7000000000004121 0.1 10  0.6000000000007266 0.1 10  0.5000000000010305 0.1 10  0.400000000000781 0.1 10  0.3000000000005206 0.1 10  0.2000000000002494 0.1 10  0.1 0.1999999999998319 10  0.1 0.2999999999995319 10  0.1 0.3999999999992158 10  0.1 0.4999999999989815 10  0.1 0.5999999999989688 10  0.1 0.6999999999992427 10  0.1 0.7999999999994949 10  0.1 0.8999999999997471 10  0 0.8999999999995836 10  0 0.7999999999999998 10  0 0.7000000000006934 10  0 0.6000000000013869 10  0 0.5000000000020587 10  0 0.4000000000016644 10  0 0.3000000000012483 10  0 0.2000000000008322 10  0 0.100000000000416 10  0 0 0.09999999999992584  0 0 0.199999999999856  0 0 0.2999999999997771  0 0 0.3999999999996677  0 0 0.4999999999995511  0 0 0.5999999999994683  0 0 0.6999999999993983  0 0 0.7999999999993286  0 0 0.8999999999992587  0 0 0.9999999999991888  0 0 1.099999999999119  0 0 1.199999999999033  0 0 1.299999999998852  0 0 1.399999999998576  0 0 1.499999999998284  0 0 1.599999999997992  0 0 1.6999999999977  0 0 1.799999999997408  0 0 1.899999999997116  0 0 1.999999999996825  0 0 2.099999999996533  0 0 2.199999999996241  0 0 2.299999999995949  0 0 2.399999999995657  0 0 2.499999999995365  0 0 2.599999999995073  0 0 2.699999999994782  0 0 2.79999999999449  0 0 2.899999999994198  0 0 2.999999999993906  0 0 3.099999999993614  0 0 3.199999999993322  0 0 3.299999999993029  0 0 3.399999999992738  0 0 3.499999999992446  0 0 3.599999999992154  0 0 3.699999999991863  0 0 3.799999999991571  0 0 3.899999999991278  0 0 3.999999999991022  0 0 4.099999999991035  0 0 4.199999999991187  0 0 4.299999999991338  0 0 4.399999999991491  0 0 4.499999999991642  0 0 4.599999999991795  0 0 4.699999999991947  0 0 4.799999999992099  0 0 4.89999999999225  0 0 4.999999999992403  0 0 5.099999999992555  0 0 5.199999999992706  0 0 5.299999999992858  0 0 5.39999999999301  0 0 5.499999999993161  0 0 5.599999999993313  0 0 5.699999999993466  0 0 5.799999999993618  0 0 5.899999999993771  0 0 5.999999999993922  0 0 6.099999999994074  0 0 6.199999999994227  0 0 6.299999999994378  0 0 6.39999999999453  0 0 6.499999999994682  0 0 6.599999999994833  0 0 6.699999999994986  0 0 6.799999999995138  0 0 6.899999999995289  0 0 6.999999999995442  0 0 7.099999999995594  0 0 7.199999999995747  0 0 7.299999999995897  0 0 7.39999999999605  0 0 7.499999999996202  0 0 7.599999999996353  0 0 7.699999999996505  0 0 7.799999999996658  0 0 7.899999999996808  0 0 7.999999999996962  0 0 8.099999999997113  0 0 8.199999999997265  0 0 8.299999999997418  0 0 8.399999999997569  0 0 8.499999999997721  0 0 8.599999999997873  0 0 8.699999999998024  0 0 8.799999999998176  0 0 8.899999999998329  0 0 8.999999999998479  0 0 9.099999999998634  0 0 9.199999999998786  0 0 9.299999999998937  0 0 9.399999999999089  0 0 9.499999999999241  0 0 9.599999999999392  0 0 9.699999999999545  0 0 9.799999999999697  0 0 9.899999999999848  1 0 0.09999999999992584  1 0 0.199999999999856  1 0 0.2999999999997771  1 0 0.3999999999996677  1 0 0.4999999999995511  1 0 0.5999999999994683  1 0 0.6999999999993983  1 0 0.7999999999993286  1 0 0.8999999999992587  1 0 0.9999999999991888  1 0 1.099999999999119  1 0 1.199999999999033  1 0 1.299999999998852  1 0 1.399999999998576  1 0 1.499999999998284  1 0 1.599999999997992  1 0 1.6999999999977  1 0 1.799999999997408  1 0 1.899999999997116  1 0 1.999999999996825  1 0 2.099999999996533  1 0 2.199999999996241  1 0 2.299999999995949  1 0 2.399999999995657  1 0 2.499999999995365  1 0 2.599999999995073  1 0 2.699999999994782  1 0 2.79999999999449  1 0 2.899999999994198  1 0 2.999999999993906  1 0 3.099999999993614  1 0 3.199999999993322  1 0 3.299999999993029  1 0 3.399999999992738  1 0 3.499999999992446  1 0 3.599999999992154  1 0 3.699999999991863  1 0 3.799999999991571  1 0 3.899999999991278  1 0 3.999999999991022  1 0 4.099999999991035  1 0 4.199999999991187  1 0 4.299999999991338  1 0 4.399999999991491  1 0 4.499999999991642  1 0 4.599999999991795  1 0 4.699999999991947  1 0 4.799999999992099  1 0 4.89999999999225  1 0 4.999999999992403  1 0 5.099999999992555  1 0 5.199999999992706  1 0 5.299999999992858  1 0 5.39999999999301  1 0 5.499999999993161  1 0 5.599999999993313  1 0 5.699999999993466  1 0 5.799999999993618  1 0 5.899999999993771  1 0 5.999999999993922  1 0 6.099999999994074  1 0 6.199999999994227  1 0 6.299999999994378  1 0 6.39999999999453  1 0 6.499999999994682  1 0 6.599999999994833  1 0 6.699999999994986  1 0 6.799999999995138  1 0 6.899999999995289  1 0 6.999999999995442  1 0 7.099999999995594  1 0 7.199999999995747  1 0 7.299999999995897  1 0 7.39999999999605  1 0 7.499999999996202  1 0 7.599999999996353  1 0 7.699999999996505  1 0 7.799999999996658  1 0 7.899999999996808  1 0 7.999999999996962  1 0 8.099999999997113  1 0 8.199999999997265  1 0 8.299999999997418  1 0 8.399999999997569  1 0 8.499999999997721  1 0 8.599999999997873  1 0 8.699999999998024  1 0 8.799999999998176  1 0 8.899999999998329  1 0 8.999999999998479  1 0 9.099999999998634  1 0 9.199999999998786  1 0 9.299999999998937  1 0 9.399999999999089  1 0 9.499999999999241  1 0 9.599999999999392  1 0 9.699999999999545  1 0 9.799999999999697  1 0 9.899999999999848  1 1 0.09999999999992584  1 1 0.199999999999856  1 1 0.2999999999997771  1 1 0.3999999999996677  1 1 0.4999999999995511  1 1 0.5999999999994683  1 1 0.6999999999993983  1 1 0.7999999999993286  1 1 0.8999999999992587  1 1 0.9999999999991888  1 1 1.099999999999119  1 1 1.199999999999033  1 1 1.299999999998852  1 1 1.399999999998576  1 1 1.499999999998284  1 1 1.599999999997992  1 1 1.6999999999977  1 1 1.799999999997408  1 1 1.899999999997116  1 1 1.999999999996825  1 1 2.099999999996533  1 1 2.199999999996241  1 1 2.299999999995949  1 1 2.399999999995657  1 1 2.499999999995365  1 1 2.599999999995073  1 1 2.699999999994782  1 1 2.79999999999449  1 1 2.899999999994198  1 1 2.999999999993906  1 1 3.099999999993614  1 1 3.199999999993322  1 1 3.299999999993029  1 1 3.399999999992738  1 1 3.499999999992446  1 1 3.599999999992154  1 1 3.699999999991863  1 1 3.799999999991571  1 1 3.899999999991278  1 1 3.999999999991022  1 1 4.099999999991035  1 1 4.199999999991187  1 1 4.299999999991338  1 1 4.399999999991491  1 1 4.499999999991642  1 1 4.599999999991795  1 1 4.699999999991947  1 1 4.799999999992099  1 1 4.89999999999225  1 1 4.999999999992403  1 1 5.099999999992555  1 1 5.199999999992706  1 1 5.299999999992858  1 1 5.39999999999301  1 1 5.499999999993161  1 1 5.599999999993313  1 1 5.699999999993466  1 1 5.799999999993618  1 1 5.899999999993771  1 1 5.999999999993922  1 1 6.099999999994074  1 1 6.199999999994227  1 1 6.299999999994378  1 1 6.39999999999453  1 1 6.499999999994682  1 1 6.599999999994833  1 1 6.699999999994986  1 1 6.799999999995138  1 1 6.899999999995289  1 1 6.999999999995442  1 1 7.099999999995594  1 1 7.199999999995747  1 1 7.299999999995897  1 1 7.39999999999605  1 1 7.499999999996202  1 1 7.599999999996353  1 1 7.699999999996505  1 1 7.799999999996658  1 1 7.899999999996808  1 1 7.999999999996962  1 1 8.099999999997113  1 1 8.199999999997265  1 1 8.299999999997418  1 1 8.399999999997569  1 1 8.499999999997721  1 1 8.599999999997873  1 1 8.699999999998024  1 1 8.799999999998176  1 1 8.899999999998329  1 1 8.999999999998479  1 1 9.099999999998634  1 1 9.199999999998786  1 1 9.299999999998937  1 1 9.399999999999089  1 1 9.499999999999241  1 1 9.599999999999392  1 1 9.699999999999545  1 1 9.799999999999697  1 1 9.899999999999848  0.9 1 0.09999999999992584  0.9 1 0.199999999999856  0.9 1 0.2999999999997771  0.9 1 0.3999999999996677  0.9 1 0.4999999999995511  0.9 1 0.5999999999994683  0.9 1 0.6999999999993983  0.9 1 0.7999999999993286  0.9 1 0.8999999999992587  0.9 1 0.9999999999991888  0.9
[...]
<PointData  Vectors="f_9"> 
<DataArray  type="Float64"  Name="f_9"  NumberOfComponents="3" format="ascii">0.0000000000000000e+00 0.0000000000000000e+00 0.0000000000000000e+00  0.0000000000000000e+00 0.0000000000000000e+00 0.0000000000000000e+00  0.0000000000000000e+00 0.0000000000000000e+00 0.0000000000000000e+00  0.0000000000000000e+00 0.0000000000000000e+00 0.0000000000000000e+00  0.0000000000000000e+00 0.0000000000000000e+00 0.0000000000000000e+00  0.0000000000000000e+00 0.0000000000000000e+00 0.0000000000000000e+00  0.0000000000000000e+00 0.0000000000000000e+00 0.0000000000000000e+00  0.0000000000000000e+00 0.0000000000000000e+00 0.0000000000000000e+00  0.0000000000000000e+00 0.0000000000000000e+00 0.0000000000000000e+00  0.0000000000000000e+00 0.0000000000000000e+00 0.0000000000000000e+00  0.0000000000000000e+00 0.0000000000000000e+00 0.0000000000000000e+00  0.0000000000000000e+00 0.0000000000000000e+00 0.0000000000000000e+00  0.0000000000000000e+00 0.0000000000000000e+00 0.0000000000000000e+00  0.0000000000000000e+00 0.0000000000000000e+00 0.0000000000000000e+00  0.0000000000000000e+00 0.0000000000000000e+00 0.0000000000000000e+00  0.0000000000000000e+00 0.0000000000000000e+00 0.0000000000000000e+00  0.0000000000000000e+00 0.0000000000000000e+00 0.0000000000000000e+00  0.0000000000000000e+00 0.0000000000000000e+00 0.0000000000000000e+00  0.0000000000000000e+00 0.0000000000000000e+00 0.0000000000000000e+00  0.0000000000000000e+00 0.0000000000000000e+00 0.0000000000000000e+00  0.0000000000000000e+00 0.0000000000000000e+00 0.0000000000000000e+00  0.0000000000000000e+00 0.0000000000000000e+00 0.0000000000000000e+00  0.0000000000000000e+00 0.0000000000000000e+00 0.0000000000000000e+00  0.0000000000000000e+00 0.0000000000000000e+00 0.0000000000000000e+00  0.0000000000000000e+00 0.0000000000000000e+00 0.0000000000000000e+00  0.0000000000000000e+00 0.0000000000000000e+00 0.0000000000000000e+00  0.0000000000000000e+00 0.0000000000000000e+00 0.0000000000000000e+00  0.0000000000000000e+00 0.0000000000000000e+00 0.0000000000000000e+00  0.0000000000000000e+00 0.0000000000000000e+00 0.0000000000000000e+00  0.0000000000000000e+00 0.0000000000000000e+00 0.0000000000000000e+00  0.0000000000000000e+00 0.0000000000000000e+00 0.0000000000000000e+00  0.0000000000000000e+00 0.0000000000000000e+00 0.0000000000000000e+00  0.0000000000000000e+00 0.0000000000000000e+00 0.0000000000000000e+00  0.0000000000000000e+00 0.0000000000000000e+00 0.0000000000000000e+00  0.0000000000000000e+00 0.0000000000000000e+00 0.0000000000000000e+00  0.0000000000000000e+00 0.0000000000000000e+00 0.0000000000000000e+00  0.0000000000000000e+00 0.0000000000000000e+00 0.0000000000000000e+00  0.0000000000000000e+00 0.0000000000000000e+00 0.0000000000000000e+00  0.0000000000000000e+00 0.0000000000000000e+00 0.0000000000000000e+00  0.0000000000000000e+00 0.0000000000000000e+00 0.0000000000000000e+00  0.0000000000000000e+00 0.0000000000000000e+00 0.0000000000000000e+00  0.0000000000000000e+00 0.0000000000000000e+00 0.0000000000000000e+00  0.0000000000000000e+00 0.0000000000000000e+00 0.0000000000000000e+00  0.0000000000000000e+00 0.0000000000000000e+00 0.0000000000000000e+00  0.0000000000000000e+00 0.0000000000000000e+00 0.0000000000000000e+00  0.0000000000000000e+00 0.0000000000000000e+00 0.0000000000000000e+00  0.0000000000000000e+00 0.0000000000000000e+00 0.0000000000000000e+00  0.0000000000000000e+00 0.0000000000000000e+00 0.0000000000000000e+00  0.0000000000000000e+00 0.0000000000000000e+00 0.0000000000000000e+00  0.0000000000000000e+00 0.0000000000000000e+00 0.0000000000000000e+00  0.0000000000000000e+00 0.0000000000000000e+00 0.0000000000000000e+00  0.0000000000000000e+00 0.0000000000000000e+00 0.0000000000000000e+00  0.0000000000000000e+00 0.0000000000000000e+00 0.0000000000000000e+00  0.0000000000000000e+00 0.0000000000000000e+00 0.0000000000000000e+00  0.0000000000000000e+00 0.0000000000000000e+00 0.0000000000000000e+00  0.0000000000000000e+00 0.0000000000000000e+00 0.0000000000000000e+00  0.0000000000000000e+00 0.0000000000000000e+00 0.0000000000000000e+00  0.0000000000000000e+00 0.0000000000000000e+00 0.0000000000000000e+00  0.0000000000000000e+00 0.0000000000000000e+00 0.0000000000000000e+00  0.0000000000000000e+00 0.0000000000000000e+00 0.0000000000000000e+00  0.0000000000000000e+00 0.0000000000000000e+00 0.0000000000000000e+00  0.0000000000000000e+00 0.0000000000000000e+00 0.0000000000000000e+00  0.0000000000000000e+00 0.0000000000000000e+00 0.0000000000000000e+00  0.0000000000000000e+00 0.0000000000000000e+00 0.0000000000000000e+00  0.0000000000000000e+00 0.0000000000000000e+00 0.0000000000000000e+00  0.0000000000000000e+00 0.0000000000000000e+00 0.0000000000000000e+00  0.0000000000000000e+00 0.0000000000000000e+00 0.0000000000000000e+00  0.0000000000000000e+00 0.0000000000000000e+00 0.0000000000000000e+00  0.0000000000000000e+00 0.0000000000000000e+00 0.0000000000000000e+00  0.0000000000000000e+00 0.0000000000000000e+00 0.0000000000000000e+00  0.0000000000000000e+00 0.0000000000000000e+00 0.0000000000000000e+00  0.0000000000000000e+00 0.0000000000000000e+00 0.0000000000000000e+00  0.0000000000000000e+00 0.0000000000000000e+00 0.0000000000000000e+00  0.0000000000000000e+00 0.0000000000000000e+00 0.0000000000000000e+00  0.0000000000000000e+00 0.0000000000000000e+00 0.0000000000000000e+00  0.0000000000000000e+00 0.0000000000000000e+00 0.0000000000000000e+00  0.0000000000000000e+00 0.0000000000000000e+00 0.0000000000000000e+00  0.0000000000000000e+00 0.0000000000000000e+00 0.0000000000000000e+00  0.0000000000000000e+00 0.0000000000000000e+00 0.0000000000000000e+00  0.0000000000000000e+00 0.0000000000000000e+00 0.0000000000000000e+00  0.0000000000000000e+00 0.0000000000000000e+00 0.0000000000000000e+00  0.0000000000000000e+00 0.0000000000000000e+00 0.0000000000000000e+00  0.0000000000000000e+00 0.0000000000000000e+00 0.0000000000000000e+00  0.0000000000000000e+00 0.0000000000000000e+00 0.0000000000000000e+00  0.0000000000000000e+00 0.0000000000000000e+00 0.0000000000000000e+00  0.0000000000000000e+00 0.0000000000000000e+00 0.0000000000000000e+00  0.0000000000000000e+00 0.0000000000000000e+00 0.0000000000000000e+00  0.0000000000000000e+00 0.0000000000000000e+00 0.0000000000000000e+00  0.0000000000000000e+00 0.0000000000000000e+00 0.0000000000000000e+00  0.0000000000000000e+00 0.0000000000000000e+00 0.0000000000000000e+00  0.0000000000000000e+00 0.0000000000000000e+00 0.0000000000000000e+00  0.0000000000000000e+00 0.0000000000000000e+00 0.0000000000000000e+00  0.0000000000000000e+00 0.0000000000000000e+00 0.0000000000000000e+00  0.0000000000000000e+00 0.0000000000000000e+00 0.0000000000000000e+00  0.0000000000000000e+00 0.0000000000000000e+00 0.0000000000000000e+00  0.0000000000000000e+00 0.0000000000000000e+00 0.0000000000000000e+00  0.0000000000000000e+00 0.0000000000000000e+00 0.0000000000000000e+00  0.0000000000000000e+00 0.0000000000000000e+00 0.0000000000000000e+00  0.0000000000000000e+00 0.0000000000000000e+00 0.0000000000000000e+00  0.0000000000000000e+00 0.0000000000000000e+00 0.0000000000000000e+00  0.0000000000000000e+00 0.0000000000000000e+00 0.0000000000000000e+00  0.0000000000000000e+00 0.0000000000000000e+00 0.0000000000000000e+00  0.0000000000000000e+00 0.0000000000000000e+00 0.0000000000000000e+00  0.0000000000000000e+00 0.0000000000000000e+00 0.0000000000000000e+00  0.0000000000000000e+00 0.0000000000000000e+00 0.0000000000000000e+00  0.0000000000000000e+00 0.0000000000000000e+00 0.0000000000000000e+00  0.0000000000000000e+00 0.0000000000000000e+00 0.0000000000000000e+00  0.0000000000000000e+00 0.0000000000000000e+00 0.0000000000000000e+00  0.0000000000000000e+00 0.0000000000000000e+00 0.0000000000000000e+00  0.0000000000000000e+00 0.0000000000000000e+00 0.0000000000000000e+00  0.0000000000000000e+00 0.0000000000000000e+00 0.0000000000000000e+00  0.0000000000000000e+00 0.0000000000000000e+00 0.0000000000000000e+00  0.0000000000000000e+00 0.0000000000000000e+00 0.0000000000000000e+00  0.0000000000000000e+00 0.0000000000000000e+00 0.0000000000000000e+00  0.0000000000000000e+00 0.0000000000000000e+00 0.0000000000000000e+00  0.0000000000000000e+00 0.0000000000000000e+00 0.0000000000000000e+00  -1.9939622493959533e-03 -5.5961435225172400e-03 -9.3587121811526518e-03  -2.8441685419708994e-03 -1.2259563633433238e-02 -1.6127390151833718e-02  -3.3416793388615796e-03 -2.0788753561723595e-02 -2.2881047496182957e-02  -3.7893503609596558e-03 -3.0964135414998751e-02 -2.8822450974899383e-02  -4.0695888284452055e-03 -4.2505006370404746e-02 -3.4029531242354326e-02  -4.1499917007443857e-03 -5.5419377047547673e-02 -3.8920416528368515e-02  -4.2354514750443757e-03 -6.9507630108926091e-02 -4.3460656693388278e-02  -4.0333044568532823e-03 -8.4753505205000065e-02 -4.7617559143185210e-02  -3.9660020792692766e-03 -1.0098878293714146e-01 -5.1316010186026668e-02  -3.7331361720585815e-03 -1.1817428646835679e-01 -5.4618630590629345e-02  -3.5019923924564131e-03 -1.3614476456523464e-01 -5.7591790677097437e-02  -3.2514443962225084e-03 -1.5473311411088650e-01 -6.0229856150836106e-02  -2.9268773139794917e-03 -1.7405058015653244e-01 -6.2685185647033334e-02  -2.7148614747470982e-03 -1.9383741872877508e-01 -6.4817820869248949e-02  -2.4458261109889532e-03 -2.1407060218803450e-01 -6.6618523634397395e-02  -2.1707375450867455e-03 -2.3474196760972993e-01 -6.8055175326691572e-02  -1.9243638940943217e-03 -2.5567825204670708e-01 -6.9339190736307732e-02  -1.7001297110297428e-03 -2.7677965142278788e-01 -7.0224548916708748e-02  -1.4908941137647014e-03 -2.9804018454485581e-01 -7.0799151733954888e-02  -1.2663255540651069e-03 -3.1934803720713462e-01 -7.1139581535835467e-02  -1.0769908990976935e-03 -3.4063799452101134e-01 -7.1238666186011768e-02  -9.0222273997773766e-04 -3.6186415745314215e-01 -7.1078804938606854e-02  -6.1208757770931982e-04 -3.8293973414469745e-01 -7.0691989377316078e-02  -4.2995066242292588e-04 -4.0381721983648966e-01 -7.0002026053491734e-02  -2.0928010168611428e-04 -4.2445704486477481e-01 -6.9172301108932396e-02  -5.8909493511639196e-05 -4.4471887063541421e-01 -6.8102878861370439e-02  1.4604088641881176e-04 -4.6461299141153406e-01 -6.6830989835238400e-02  3.0349020015818187e-04 -4.8403044858242855e-01 -6.5461703381054615e-02  4.0849527688100628e-04 -5.0292994576472683e-01 -6.3625936898053057e-02  5.4473227440313739e-04 -5.2127867713967113e-01 -6.1897142482498793e-02  7.0873236896868840e-04 -5.3910717547535325e-01 -5.9760280803018394e-02  8.2557245493879866e-04 -5.5622318322519115e-01 -5.7676600600246375e-02  9.9328212223877667e-04 -5.7270345232695374e-01 -5.5224791697493947e-02  1.0292589784298861e-03 -5.8839802021510679e-01 -5.2841513304804327e-02  1.1916188559739395e-03 -6.0342885807787450e-01 -5.0144385629829098e-02  1.3226596588271744e-03 -6.1767173001594167e-01 -4.7427093018895423e-02  1.4680124562826188e-03 -6.3104510471578590e-01 -4.4487576115787714e-02  1.4702158112022429e-03 -6.4344453802921553e-01 -4.1534397487953775e-02  1.6702547216992907e-03 -6.5510330080212420e-01 -3.8304146028642620e-02  1.7071787760473357e-03 -6.6568738500751756e-01 -3.5134204318939530e-02  1.8230368799476556e-03 -6.7542108556298264e-01 -3.1826332331647930e-02  1.8841859315126847e-03 -6.8415182726639678e-01 -2.8388610908371643e-02  1.9271369023623525e-03 -6.9187024314668122e-01 -2.5074447489891422e-02  1.9987439379431132e-03 -6.9866358508616200e-01 -2.1583794494173726e-02  2.1309522588898152e-03 -7.0439818390352682e-01 -1.8121111029874279e-02  2.1312300587656790e-03 -7.0915819575158623e-01 -1.4592674066976948e-02  2.1378614906541636e-03 -7.1284045657629191e-01 -1.0880013612414960e-02  2.0847651307724538e-03 -7.1526076003378403e-01 -7.0578332062701012e-03  2.2912013808633410e-03 -7.1692431755907704e-01 -3.5513105724348203e-03  2.2359050044011950e-03 -7.1740050772496622e-01 -3.9903988320311259e-05  2.2968585089257355e-03 -7.1693805380350983e-01 3.7771832144361710e-03  2.3131417752704636e-03 -7.1528889968315046e-01 7.3708805061870504e-03  2.3148974242594715e-03 -7.1265178823145037e-01 1.0938406978837432e-02  2.2702588558919808e-03 -7.0893712540939979e-01 1.4544784534307686e-02  2.2380044573606268e-03 -7.0424954500788095e-01 1.8170399061816202e-02  2.1807005497735915e-03 -6.9855663100942833e-01 2.1667991337845936e-02  2.1380245786783137e-03 -6.9179922545412076e-01 2.5045853287894781e-02  1.9922130455574767e-03 -6.8400923998613727e-01 2.8650948913475662e-02  1.9037847554318141e-03 -6.7515050073192551e-01 3.2097553958151552e-02  1.9068548548571780e-03 -6.6542521449331271e-01 3.5245814632211894e-02  1.8010979025567314e-03 -6.5480671802283452e-01 3.8364058475530163e-02  1.7556765024489248e-03 -6.4324264238943207e-01 4.1509825301760880e-02  1.6222648079770726e-03 -6.3069769515725260e-01 4.4583182343786096e-02  1.5262199174617818e-03 -6.1727504748626771e-01 4.7407742973163393e-02  1.4135112276931088e-03 -6.0314444300702974e-01 5.0048395320912299e-02  1.4002951437443092e-03 -5.8829134067683719e-01 5.2715388691541604e-02  1.1652788475157415e-03 -5.7240649699822199e-01 5.5266790671356522e-02  1.0604318794310054e-03 -5.5598181763371213e-01 5.7597872436359554e-02  1.0167753942195989e-03 -5.3900105862892367e-01 5.9680195653538791e-02  8.0970288609906471e-04 -5.2113596672752738e-01 6.1746312492368172e-02  6.5141572672309817e-04 -5.0276531422710768e-01 6.3629345119628214e-02  4.6383949741021855e-04 -4.8392627368639124e-01 6.5152614523801930e-02  2.9672717137248141e-04 -4.6441835236066337e-01 6.6749757883670977e-02  1.2580525933576710e-04 -4.4453347820102168e-01 6.8072227357893283e-02  -1.0892246066822778e-04 -4.2418489627354938e-01 6.9147505918512348e-02  -2.3410083182416508e-04 -4.0376800426778892e-01 6.9858455839491851e-02  -4.7772984300302365e-04 -3.8284076618723206e-01 7.0512624311606015e-02  -6.8128499417651302e-04 -3.6187511878237383e-01 7.0981674163319658e-02  -9.1623512174957098e-04 -3.4060080316514613e-01 7.1189733733059521e-02  -1.1815321051513875e-03 -3.1927456831796108e-01 7.1104799790790207e-02  -1.3471474030009357e-03 -2.9802403939818195e-01 7.0756829072643010e-02  -1.6012030146671285e-03 -2.7671846176828635e-01 7.0158404683010628e-02  -1.8868699865075193e-03 -2.5556529756736235e-01 6.9230124859354342e-02  -2.1479259455174211e-03 -2.3466933451858860e-01 6.8031545879218405e-02  -2.3647260865971784e-03 -2.1415666446134124e-01 6.6560383367332193e-02  -2.6518701568050214e-03 -1.9388808220438342e-01 6.4789086094927825e-02  -2.9154807606981571e-03 -1.7416625129660077e-01 6.2734020609374233e-02  -3.1905058660671101e-03 -1.5486423742818559e-01 6.0500519902453399e-02  -3.4399270073149977e-03 -1.3609365632743453e-01 5.7756931129421332e-02  -3.7077696989637758e-03 -1.1808716926030648e-01 5.4628030871977533e-02  -3.8749815494247041e-03 -1.0096486190990119e-01 5.1208397492183227e-02  -4.0587141756275539e-03 -8.4732464046869641e-02 4.7401382370029242e-02  -4.1356991506245090e-03 -6.9693287667634302e-02 4.3202332581998779e-02  -4.3043974398502237e-03 -5.5456520731712179e-02 3.8912599803056849e-02  -4.1823355452560622e-03 -4.2662259658314924e-02 3.4300735642838281e-02  -3.8887690652403893e-03 -3.0992422460300068e-02 2.9044499752700549e-02  -3.3567280607626373e-03 -2.0935509192167204e-02 2.3136967045956535e-02  -2.8827425838422131e-03 -1.2136699118498592e-02 1.6422902598547725e-02  -1.8940577034839172e-03 -5.1735173722426827e-03 8.8746397402016883e-03  2.0115439196306505e-03 -5.5017754750602017e-03 -9.3404488003448107e-03  2.7827518215858566e-03 -1.2368170532247790e-02 -1.6803352745790558e-02  3.4997037932475643e-03 -2.0764469212902346e-02 -2.3345803590516804e-02  3.9873236714244873e-03 -3.0825001559641463e-02 -2.9114895082172819e-02  4.2793479438790324e-03 -4.2557202456695663e-02 -3.4434522534701806e-02  4.4157555485122690e-03 -5.5485976704499410e-02 -3.9156247911289729e-02  4.3846166451323790e-03 -6.9569605136062834e-02 -4.3614267987828782e-02  4.3102998208283342e-03 -8.4826575842335092e-02 -4.7632059064802564e-02  4.0367943475875167e-03 -1.0109342556537990e-01 -5.1321100639055164e-02  3.8556627022061497e-03 -1.1819697337890880e-01 -5.4650649939894130e-02  3.6731437493432921e-03 -1.3609926416347859e-01 -5.7624026721135105e-02  3.4340579775187412e-03 -1.5474190229585372e-01 -6.0369105359246528e-02  3.1494259718877812e-03 -1.7400228458855574e-01 -6.2758820136034565e-02  2.8953389370415779e-03 -1.9377890228477102e-01 -6.4800161187159505e-02  2.6258184987723956e-03 -2.1401393830335561e-01 -6.6550482785330475e-02  2.3134021120326045e-03 -2.3465390464777536e-01 -6.7995592371394728e-02  2.0341226987666888e-03 -2.5553122274446999e-01 -6.9053089402103557e-02  1.8095105577602966e-03 -2.7659424639143648e-01 -6.9939145578672327e-02  1.5672771886929995e-03 -2.9779219238769783e-01 -7.0585875877810553e-02  1.3536692341130079e-03 -3.1904633926675879e-01 -7.0943198594892107e-02  1.1177829353528231e-03 -3.4036081120146822e-01 -7.1052135692529675e-02  8.6002133122907562e-04 -3.6149888336208308e-01 -7.0892790135934719e-02  6.2698211485514687e-04 -3.8262885808291203e-01 -7.0419455933047562e-02  4.1695880315286912e-04 -4.0342154688230702e-01 -6.9844555231556263e-02  1.8852602454350517e-04 -4.2400217365839549e-01 -6.9028773058286155e-02  -6.4029027312281810e-05 -4.4423851711803192e-01 -6.7986081721010463e-02  -2.3456547509928245e-04 -4.6410558362719467e-01 -6.6706722430266804e-02  -4.8284344196872323e-04 -4.8353485450020850e-01 -6.5074894861789537e-02  -6.5825367044779984e-04 -5.0241057735468320e-01 -6.3571312895722348e-02  -8.0164986065322423e-04 -5.2079338171484468e-01 -6.1533631740406047e-02  -9.3965466688411656e-04 -5.3843008377879231e-01 -5.9659011617592773e-02  -1.1330394272203875e-03 -5.5569948370546285e-01 -5.7465866470629623e-02  -1.3319921277202996e-03 -5.7206978477058934e-01 -5.5179560660998286e-02  -1.4303320778687742e-03 -5.8789206191280075e-01 -5.2693371283849197e-02  -1.5853761751740605e-03 -6.0284578896277463e-01 -5.0118618790481698e-02  -1.6786324771022227e-03 -6.1708932433596209e-01 -4.7335951746114331e-02  -1.8236218407021514e-03 -6.3046135224367961e-01 -4.4440068058921180e-02  -1.8932594530134722e-03 -6.4290108187005790e-01 -4.1428960256552461e-02  -1.9860164941656543e-03 -6.5440991182586894e-01 -3.8425377936812222e-02  -2.0581280619720505e-03 -6.6514587203569564e-01 -3.5264338444561068e-02  -2.1468350797610243e-03 -6.7493417762460350e-01 -3.1944202782226643e-02  -2.2275457310018307e-03 -6.8365145132340899e-01 -2.8605633660602318e-02  -2.2503264513742331e-03 -6.9135708010296892e-01 -2.5098424055754676e-02  -2.3006688384522244e-03 -6.9816857391788389e-01 -2.1841572459139334e-02  -2.3406540544203334e-03 -7.0393841462181894e-01 -1.8253740874885526e-02  -2.3775457354549942e-03 -7.0879799244811270e-01 -1.4641649695858216e-02  -2.3878840819290198e-03 -7.1254794505323826e-01 -1.1071358591394099e-02  -2.2625265879809881e-03 -7.1509531779488167e-01 -7.5516980602335585e-03  -2.4312783328549427e-03 -7.1687421219222058e-01 -3.7335553938072741e-03  -2.3620989899879423e-03 -7.1725080442682587e-01 1.1036268447091555e-04  -2.4227259661332738e-03 -7.1677231201426705e-01 3.6080660928552014e-03  -2.3699638739974956e-03 -7.1515043957689073e-01 7.2838454031640115e-03  -2.3848837448068793e-03 -7.1260270057161001e-01 1.0898319398647941e-02  -2.3629119380856752e-03 -7.0896252692618711e-01 1.4467529762532070e-02  -2.2295397136383585e-03 -7.0422320776354408e-01 1.7960555709364317e-02  -2.1563894392706046e-03 -6.9862543700781876e-01 2.1502344569891304e-02  -2.1896514983904829e-03 -6.9191108925534628e-01 2.5116408270074515e-02  -2.0715322895831331e-03 -6.8413983985864679e-01 2.8361849628576317e-02  -1.9417266349833707e-03 -6.7527329277688064e-01 3.1710793231857499e-02  -1.9647663001720636e-03 -6.6566594372912291e-01 3.5107538484148305e-02  -1.8242091645297395e-03 -6.5497407239694383e-01 3.8343228153392764e-02  -1.7371663770717862e-03 -6.4336380959697115e-01 4.1328964241737230e-02  -1.5965218941555359e-03 -6.3096735329582621e-01 4.4234317824878952e-02  -1.4994908905063419e-03 -6.1771613755025578e-01 4.7194775860722946e-02  -1.333185224