<?xml version="1.0"?>
<VTKFile type="UnstructuredGrid"  version="0.1"  >
<UnstructuredGrid>
<Piece  NumberOfPoints="7258" NumberOfCells="33055">
<Points>
<DataArray  type="Float64"  NumberOfComponents="3"  format="ascii">1 0.5 0  0.5 1 0  0 0.5 0  0.5 0 0  1 0.5 10  0.5 1 10  0 0.5 10  0.5 0 10  0.9903926402016605 0.5975451610078364 0  0.9619397662558109 0.6913417161821407 0  0.9157348061517772 0.7777851165090461 0  0.8535533905939832 0.8535533905925644 0  0.777785116510359 0.9157348061508999 0  0.6913417161830799 0.9619397662554218 0  0.5975451610083893 0.9903926402015506 0  0.4024548389921998 0.9903926402016677 0  0.308658283817935 0.9619397662558422 0  0.2222148834909352 0.9157348061517646 0  0.1464466094074604 0.8535533905940079 0  0.08426519384915471 0.7777851165104407 0  0.03806023374459366 0.6913417161831171 0  0.009607359798453785 0.597545161008411 0  0.009607359798336434 0.4024548389921788 0  0.03806023374416773 0.3086582838179112 0  0.08426519384830577 0.2222148834908299 0  0.146446609406063 0.1464466094073895 0  0.2222148834896471 0.08426519384909603 0  0.3086582838170949 0.03806023374450584 0  0.402454838991787 0.009607359798414372 0  0.5975451610078574 0.009607359798343651 0  0.6913417161821647 0.03806023374419915 0  0.7777851165091516 0.08426519384829345 0  0.8535533905926356 0.146446609406088 0  0.9157348061509585 0.2222148834897288 0  0.9619397662555096 0.3086582838171321 0  0.9903926402015899 0.4024548389918087 0  0.9903926402016605 0.5975451610078364 10  0.9619397662558109 0.6913417161821407 10  0.9157348061517772 0.7777851165090461 10  0.8535533905939832 0.8535533905925644 10  0.777785116510359 0.9157348061508999 10  0.6913417161830799 0.9619397662554218 10  0.5975451610083893 0.9903926402015506 10  0.4024548389921998 0.9903926402016677 10  0.308658283817935 0.9619397662558422 10  0.2222148834909352 0.9157348061517646 10  0.1464466094074604 0.8535533905940079 10  0.08426519384915471 0.7777851165104407 10  0.03806023374459366 0.6913417161831171 10  0.009607359798453785 0.597545161008411 10  0.009607359798336434 0.4024548389921788 10  0.03806023374416773 0.3086582838179112 10  0.08426519384830577 0.2222148834908299 10  0.146446609406063 0.1464466094073895 10  0.2222148834896471 0.08426519384909603 10  0.3086582838170949 0.03806023374450584 10  0.402454838991787 0.009607359798414372 10  0.5975451610078574 0.009607359798343651 10  0.6913417161821647 0.03806023374419915 10  0.7777851165091516 0.08426519384829345 10  0.8535533905926356 0.146446609406088 10  0.9157348061509585 0.2222148834897288 10  0.9619397662555096 0.3086582838171321 10  0.9903926402015899 0.4024548389918087 10  1 0.5 0.09999999999992584  1 0.5 0.199999999999856  1 0.5 0.2999999999997771  1 0.5 0.3999999999996677  1 0.5 0.4999999999995511  1 0.5 0.5999999999994683  1 0.5 0.6999999999993983  1 0.5 0.7999999999993286  1 0.5 0.8999999999992587  1 0.5 0.9999999999991888  1 0.5 1.099999999999119  1 0.5 1.199999999999033  1 0.5 1.299999999998852  1 0.5 1.399999999998576  1 0.5 1.499999999998284  1 0.5 1.599999999997992  1 0.5 1.6999999999977  1 0.5 1.799999999997408  1 0.5 1.899999999997116  1 0.5 1.999999999996825  1 0.5 2.099999999996533  1 0.5 2.199999999996241  1 0.5 2.299999999995949  1 0.5 2.399999999995657  1 0.5 2.499999999995365  1 0.5 2.599999999995073  1 0.5 2.699999999994782  1 0.5 2.79999999999449  1 0.5 2.899999999994198  1 0.5 2.999999999993906  1 0.5 3.099999999993614  1 0.5 3.199999999993322  1 0.5 3.299999999993029  1 0.5 3.399999999992738  1 0.5 3.499999999992446  1 0.5 3.599999999992154  1 0.5 3.699999999991863  1 0.5 3.799999999991571  1 0.5 3.899999999991278  1 0.5 3.999999999991022  1 0.5 4.099999999991035  1 0.5 4.199999999991187  1 0.5 4.299999999991338  1 0.5 4.399999999991491  1 0.5 4.499999999991642  1 0.5 4.599999999991795  1 0.5 4.699999999991947  1 0.5 4.799999999992099  1 0.5 4.89999999999225  1 0.5 4.999999999992403  1 0.5 5.099999999992555  1 0.5 5.199999999992706  1 0.5 5.299999999992858  1 0.5 5.39999999999301  1 0.5 5.499999999993161  1 0.5 5.599999999993313  1 0.5 5.699999999993466  1 0.5 5.799999999993618  1 0.5 5.899999999993771  1 0.5 5.999999999993922  1 0.5 6.099999999994074  1 0.5 6.199999999994227  1 0.5 6.299999999994378  1 0.5 6.39999999999453  1 0.5 6.499999999994682  1 0.5 6.599999999994833  1 0.5 6.699999999994986  1 0.5 6.799999999995138  1 0.5 6.899999999995289  1 0.5 6.999999999995442  1 0.5 7.099999999995594  1 0.5 7.199999999995747  1 0.5 7.299999999995897  1 0.5 7.39999999999605  1 0.5 7.499999999996202  1 0.5 7.599999999996353  1 0.5 7.699999999996505  1 0.5 7.799999999996658  1 0.5 7.899999999996808  1 0.5 7.999999999996962  1 0.5 8.099999999997113  1 0.5 8.199999999997265  1 0.5 8.299999999997418  1 0.5 8.399999999997569  1 0.5 8.499999999997721  1 0.5 8.599999999997873  1 0.5 8.699999999998024  1 0.5 8.799999999998176  1 0.5 8.899999999998329  1 0.5 8.999999999998479  1 0.5 9.099999999998634  1 0.5 9.199999999998786  1 0.5 9.299999999998937  1 0.5 9.399999999999089  1 0.5 9.499999999999241  1 0.5 9.599999999999392  1 0.5 9.699999999999545  1 0.5 9.799999999999697  1 0.5 9.899999999999848  0.5 1 0.09999999999992584  0.5 1 0.199999999999856  0.5 1 0.2999999999997771  0.5 1 0.3999999999996677  0.5 1 0.4999999999995511  0.5 1 0.5999999999994683  0.5 1 0.6999999999993983  0.5 1 0.7999999999993286  0.5 1 0.8999999999992587  0.5 1 0.9999999999991888  0.5 1 1.099999999999119  0.5 1 1.199999999999033  0.5 1 1.299999999998852  0.5 1 1.399999999998576  0.5 1 1.499999999998284  0.5 1 1.599999999997992  0.5 1 1.6999999999977  0.5 1 1.799999999997408  0.5 1 1.899999999997116  0.5 1 1.999999999996825  0.5 1 2.099999999996533  0.5 1 2.199999999996241  0.5 1 2.299999999995949  0.5 1 2.399999999995657  0.5 1 2.499999999995365  0.5 1 2.599999999995073  0.5 1 2.699999999994782  0.5 1 2.79999999999449  0.5 1 2.899999999994198  0.5 1 2.999999999993906  0.5 1 3.099999999993614  0.5 1 3.199999999993322  0.5 1 3.299999999993029  0.5 1 3.399999999992738  0.5 1 3.499999999992446  0.5 1 3.599999999992154  0.5 1 3.699999999991863  0.5 1 3.799999999991571  0.5 1 3.899999999991278  0.5 1 3.999999999991022  0.5 1 4.099999999991035  0.5 1 4.199999999991187  0.5 1 4.299999999991338  0.5 1 4.399999999991491  0.5 1 4.499999999991642  0.5 1 4.599999999991795  0.5 1 4.699999999991947  0.5 1 4.799999999992099  0.5 1 4.89999999999225  0.5 1 4.999999999992403  0.5 1 5.099999999992555  0.5 1 5.199999999992706  0.5 1 5.299999999992858  0.5 1 5.39999999999301  0.5 1 5.499999999993161  0.5 1 5.599999999993313  0.5 1 5.699999999993466  0.5 1 5.799999999993618  0.5 1 5.899999999993771  0.5 1 5.999999999993922  0.5 1 6.099999999994074  0.5 1 6.199999999994227  0.5 1 6.299999999994378  0.5 1 6.39999999999453  0.5 1 6.499999999994682  0.5 1 6.599999999994833  0.5 1 6.699999999994986  0.5 1 6.799999999995138  0.5 1 6.899999999995289  0.5 1 6.999999999995442  0.5 1 7.099999999995594  0.5 1 7.199999999995747  0.5 1 7.299999999995897  0.5 1 7.39999999999605  0.5 1 7.499999999996202  0.5 1 7.599999999996353  0.5 1 7.699999999996505  0.5 1 7.799999999996658  0.5 1 7.899999999996808  0.5 1 7.999999999996962  0.5 1 8.099999999997113  0.5 1 8.199999999997265  0.5 1 8.299999999997418  0.5 1 8.399999999997569  0.5 1 8.499999999997721  0.5 1 8.599999999997873  0.5 1 8.699999999998024  0.5 1 8.799999999998176  0.5 1 8.899999999998329  0.5 1 8.999999999998479  0.5 1 9.099999999998634  0.5 1 9.199999999998786  0.5 1 9.299999999998937  0.5 1 9.399999999999089  0.5 1 9.499999999999241  0.5 1 9.599999999999392  0.5 1 9.699999999999545  0.5 1 9.799999999999697  0.5 1 9.899999999999848  0 0.5 0.09999999999992584  0 0.5 0.199999999999856  0 0.5 0.2999999999997771  0 0.5 0.3999999999996677  0 0.5 0.4999999999995511  0 0.5 0.5999999999994683  0 0.5 0.6999999999993983  0 0.5 0.7999999999993286  0 0.5 0.8999999999992587  0 0.5 0.9999999999991888  0 0.5 1.099999999999119  0 0.5 1.199999999999033  0 0.5 1.299999999998852  0 0.5 1.399999999998576  0 0.5 1.499999999998284  0 0.5 1.599999999997992  0 0.5 1.6999999999977  0 0.5 1.799999999997408  0 0.5 1.899999999997116  0 0.5 1.999999999996825  0 0.5 2.099999999996533  0 0.5 2.199999999996241  0 0.5 2.299999999995949  0 0.5 2.399999999995657  0 0.5 2.499999999995365  0 0.5 2.599999999995073  0 0.5 2.699999999994782  0 0.5 2.79999999999449  0 0.5 2.899999999994198  0 0.5 2.999999999993906  0 0.5 3.099999999993614  0 0.5 3.199999999993322  0 0.5 3.299999999993029  0 0.5 3.399999999992738  0 0.5 3.499999999992446  0 0.5 3.599999999992154  0 0.5 3.699999999991863  0 0.5 3.799999999991571  0 0.5 3.899999999991278  0 0.5 3.999999999991022  0 0.5 4.099999999991035  0 0.5 4.199999999991187  0 0.5 4.299999999991338  0 0.5 4.399999999991491  0 0.5 4.499999999991642  0 0.5 4.599999999991795  0 0.5 4.699999999991947  0 0.5 4.799999999992099  0 0.5 4.89999999999225  0 0.5 4.999999999992403  0 0.5 5.099999999992555  0 0.5 5.199999999992706  0 0.5 5.299999999992858  0 0.5 5.39999999999301  0 0.5 5.499999999993161  0 0.5 5.599999999993313  0 0.5 5.699999999993466  0 0.5 5.799999999993618  0 0.5 5.899999999993771  0 0.5 5.999999999993922  0 0.5 6.099999999994074  0 0.5 6.199999999994227  0 0.5 6.299999999994378  0 0.5 6.39999999999453  0 0.5 6.499999999994682  0 0.5 6.599999999994833  0 0.5 6.699999999994986  0 0.5 6.799999999995138  0 0.5 6.899999999995289  0 0.5 6.999999999995442  0 0.5 7.099999999995594  0 0.5 7.199999999995747  0 0.5 7.299999999995897  0 0.5 7.39999999999605  0 0.5 7.499999999996202  0 0.5 7.599999999996353  0 0.5 7.699999999996505  0 0.5 7.799999999996658  0 0.5 7.899999999996808  0 0.5 7.999999999996962  0 0.5 8.099999999997113  0 0.5 8.199999999997265  0 0.5 8.299999999997418  0 0.5 8.399999999997569  0 0.5 8.499999999997721  0 0.5 8.599999999997873  0 0.5 8.699999999998024  0 0.5 8.799999999998176  0 0.5 8.899999999998329  0 0.5 8.999999999998479  0 0.5 9.099999999998634  0 0.5 9.199999999998786  0 0.5 9.299999999998937  0 0.5 9.399999999999089  0 0.5 9.499999999999241  0 0.5 9.599999999999392  
[...]
<PointData  Scalars="f_32"> 
<DataArray  type="Float64"  Name="f_32"  format="ascii">6.7108284293761501e-05  1.0719294958543128e-04  1.4443962093969536e-04  1.3079285023001315e-04  3.5613915593538104e+00  3.5612366011403536e+00  3.5614148163210215e+00  3.5616017880609685e+00  7.5564249506870971e-05  1.6562516246979530e-05  6.1046865523073336e-05  3.3910591566563420e-05  4.8314292000280541e-05  3.5259087837267471e-05  1.1656653337258038e-04  8.9481736592041071e-05  7.5373185025068697e-05  1.1676163982378860e-05  1.3939566201561212e-05  6.0989487045791774e-05  2.5155290382321249e-05  8.3870565273980668e-05  3.2727607634741128e-05  7.1626059602802045e-05  7.4140011420697048e-05  6.0349456984856621e-05  2.7477202135491909e-05  4.6811255581627215e-05  2.8450722884551206e-05  6.0954794679090761e-05  8.5256400591901920e-05  4.8524717157388818e-05  5.6594770614111410e-05  4.9326583696978929e-05  2.6286576798264769e-05  3.6759034597268550e-05  3.5612085329135983e+00  3.5612267246404481e+00  3.5611753383495497e+00  3.5611608061842523e+00  3.5611440175884459e+00  3.5611778481045415e+00  3.5611802362447209e+00  3.5611116593302645e+00  3.5611757205516117e+00  3.5611716853241226e+00  3.5612273300216777e+00  3.5612527397046607e+00  3.5613867503043339e+00  3.5613420186176148e+00  3.5613563064455804e+00  3.5615098618731555e+00  3.5615705140617173e+00  3.5616178730852757e+00  3.5616245660183341e+00  3.5617190849036580e+00  3.5615947788482845e+00  3.5615571856323283e+00  3.5615739165032072e+00  3.5615543782132955e+00  3.5615327262654426e+00  3.5614673220154791e+00  3.5614871457933268e+00  3.5614613850957300e+00  8.2465761312340305e-02  1.5302242999927981e-01  2.1861511211133711e-01  2.8323120359820914e-01  3.4777523244520908e-01  4.1243639367761936e-01  4.7720071852473783e-01  5.4199899138568974e-01  6.0637745876628990e-01  6.7042386293588374e-01  7.3392498273394491e-01  7.9699824261437691e-01  8.5928357906220687e-01  9.2064211350513714e-01  9.8155236897483367e-01  1.0422118288171938e+00  1.1018222116004712e+00  1.1607184743561456e+00  1.2187337393489619e+00  1.2760097229754122e+00  1.3326166927474898e+00  1.3887643718749441e+00  1.4442798494201377e+00  1.4988106678493076e+00  1.5526659750050615e+00  1.6057371658189887e+00  1.6581907309964066e+00  1.7100365273887139e+00  1.7611032188934841e+00  1.8112196002250354e+00  1.8610050371009321e+00  1.9097170186418568e+00  1.9579375300692330e+00  2.0054858216812925e+00  2.0523965912672302e+00  2.0986438286114186e+00  2.1439062313711252e+00  2.1885178199448947e+00  2.2322329753388104e+00  2.2755350451963174e+00  2.3179536783880965e+00  2.3598328344812405e+00  2.4008384639819229e+00  2.4413616514998924e+00  2.4810330615270533e+00  2.5197480950628046e+00  2.5580575338267342e+00  2.5955077503765791e+00  2.6322325379734561e+00  2.6681773921822765e+00  2.7038617627078909e+00  2.7383434275868783e+00  2.7722017861213768e+00  2.8054345877419786e+00  2.8378807917524833e+00  2.8697882227363407e+00  2.9009687948544527e+00  2.9312750262884864e+00  2.9609028706579492e+00  2.9898195389738302e+00  3.0179536913664800e+00  3.0455084092244009e+00  3.0722517728412724e+00  3.0983423214651298e+00  3.1237732143316936e+00  3.1485165128970962e+00  3.1723512104846630e+00  3.1956121185009208e+00  3.2181400872237491e+00  3.2398190798617801e+00  3.2609269581544669e+00  3.2812939017891836e+00  3.3008795478372051e+00  3.3198082035760041e+00  3.3380362318349337e+00  3.3555151623099335e+00  3.3724149971519641e+00  3.3885140204191453e+00  3.4038129443775023e+00  3.4185118084639048e+00  3.4323791549096305e+00  3.4454703589876186e+00  3.4580477837044428e+00  3.4698487940771559e+00  3.4809846230899724e+00  3.4913606539022704e+00  3.5009849833670450e+00  3.5097981318468929e+00  3.5180167632808175e+00  3.5255524909015681e+00  3.5323528189360553e+00  3.5384512466201743e+00  3.5437531168471792e+00  3.5484787806060019e+00  3.5523707969603673e+00  3.5556216077737948e+00  3.5581478969688067e+00  3.5599058836037738e+00  3.5610130374378008e+00  8.1388276451801203e-02  1.5257417396463563e-01  2.1885177961152594e-01  2.8233712139151412e-01  3.4724268764053029e-01  4.1231839126253511e-01  4.7703159479361190e-01  5.4185157650137517e-01  6.0634741107201873e-01  6.7026755620017076e-01  7.3368597423908366e-01  7.9682087555913883e-01  8.5908072013436976e-01  9.2044976582073679e-01  9.8141534276903286e-01  1.0420123138896638e+00  1.1017164247889926e+00  1.1606199974992839e+00  1.2185331843988625e+00  1.2757828231641486e+00  1.3324252252583479e+00  1.3886801734948635e+00  1.4441092868404186e+00  1.4986244512765969e+00  1.5525354205752404e+00  1.6056196013173281e+00  1.6580568188841873e+00  1.7098240774285138e+00  1.7609038699741637e+00  1.8111199981071506e+00  1.8607544164265191e+00  1.9095571418879906e+00  1.9576611995563882e+00  2.0054034322220122e+00  2.0522172463473924e+00  2.0984837194865031e+00  2.1438500388261623e+00  2.1883239510199530e+00  2.2320895841996706e+00  2.2753670573411449e+00  2.3178529558650220e+00  2.3596651825170945e+00  2.4006889695122022e+00  2.4411444973265355e+00  2.4807903756119583e+00  2.5195979391104273e+00  2.5578484187305914e+00  2.5953185690391516e+00  2.6319444573253747e+00  2.6679308838072107e+00  2.7036181022452315e+00  2.7381776849078876e+00  2.7719428713931786e+00  2.8052361312153167e+00  2.8376298071655204e+00  2.8696447377721275e+00  2.9006227612303976e+00  2.9310937463680466e+00  2.9607793075399425e+00  2.9896132536795221e+00  3.0177579765614402e+00  3.0452908017091236e+00  3.0720643751051746e+00  3.0981224835836900e+00  3.1236402337271185e+00  3.1482988137636991e+00  3.1721789241753755e+00  3.1953075592984148e+00  3.2179172998277319e+00  3.2397021449030943e+00  3.2607014697551482e+00  3.2810401029638441e+00  3.3007040636126059e+00  3.3196444989660248e+00  3.3378548229760319e+00  3.3552231915116666e+00  3.3721815584130774e+00  3.3881808995089338e+00  3.4035699182792754e+00  3.4182173988555800e+00  3.4321204581904645e+00  3.4452435277669675e+00  3.4578144513387428e+00  3.4696095597315408e+00  3.4806925810362350e+00  3.4911127322581095e+00  3.5007426681739138e+00  3.5096403182486404e+00  3.5178386464090274e+00  3.5252151828375617e+00  3.5321443732730975e+00  3.5381744706254952e+00  3.5435908930477567e+00  3.5481644410787343e+00  3.5521636286334499e+00  3.5554063877430360e+00  3.5578957900926844e+00  3.5597731251649143e+00  3.5608824370156698e+00  8.2138117297431743e-02  1.5318961744565948e-01  2.1873352882399588e-01  2.8285672559767588e-01  3.4840204710829664e-01  4.1284872088858060e-01  4.7699836325955591e-01  5.4212227530293711e-01  6.0642809349719395e-01  6.7045287963231004e-01  7.3395394060586872e-01  7.9699106025201327e-01  8.5918826240522816e-01  9.2051337930502475e-01  9.8149018592539650e-01  1.0421857933181360e+00  1.1018166691757991e+00  1.1607567507881362e+00  1.2186732116970325e+00  1.2759429653958272e+00  1.3324642233098267e+00  1.3888319017139215e+00  1.4443018841540296e+00  1.4988561067951025e+00  1.5527876219313430e+00  1.6056553253060459e+00  1.6581136537646679e+00  1.7099912392663961e+00  1.7610618629494943e+00  1.8111749047371672e+00  1.8609599298947048e+00  1.9096109904650294e+00  1.9578151273142763e+00  2.0054189229909447e+00  2.0523096959981153e+00  2.0985468968387870e+00  2.1438554975017889e+00  2.1885017579270944e+00  2.2322044569226689e+00  2.2755078307481158e+00  2.3179235155060058e+00  2.3597401373151303e+00  2.4008150297189124e+00  2.4413470091900478e+00  2.4809404816327723e+00  2.5196735097156533e+00  2.5579464332185822e+00  2.5955105847063420e+00  2.6321673607789431e+00  2.6681046119959184e+00  2.7037625225667874e+00  2.7382885394669478e+00  2.7722036578847500e+00  2.8054373762595004e+00  2.8378634101720346e+00  2.8697550438843216e+00  2.9009028601074265e+00  2.9311715417695816e+00  2.9609155572898089e+00  2.9898573024046171e+00  3.0179405733502671e+00  3.0454829049460139e+00  3.0722168225042750e+00  3.0983153551483897e+00  3.1237931676240249e+00  3.1485181184554496e+00  3.1722879341158379e+00  3.1955126181377835e+00  3.2181203992883507e+00  3.2398617428775665e+00  3.2609188517134222e+00  3.2813346173802502e+00  3.3009108787195096e+00  3.3198117705549550e+00  3.3380236277722792e+00  3.3555290701790748e+00  3.3724420630242347e+00  3.3885157772951793e+00  3.4038821735607678e+00  3.4184378998622051e+00  3.4324470098430098e+00  3.4455691821978021e+00  3.4581090506933934e+00  3.4699135820561651e+00  3.4809899263588502e+00  3.4913665417067601e+00  3.5009417924717998e+00  3.5099046718700673e+00  3.5180551528193078e+00  3.5256150417473071e+00  3.5323957601807123e+00  3.5385593867565626e+00  3.5437906947924800e+00  3.5484529704744769e+00  3.5524270070767066e+00  3.5556915832479716e+00  3.5581622837062916e+00  3.5599638525981132e+00  3.5610439363763682e+00  8.2907625634485393e-02  1.5283059873404892e-01  2.1900578609386540e-01  2.8305135097336970e-01  3.4784921453652268e-01  4.1237274186318734e-01  4.7753277637030472e-01  5.4220944374450541e-01  6.0663513404762792e-01  6.7063646957016820e-01  7.3415339190871776e-01  7.9721199367957785e-01  8.5941027347043442e-01  9.2073736779502280e-01  9.8174525935547730e-01  1.0423312976339416e+00  1.1019643001838388e+00  1.1608479590721263e+00  1.2188611122701023e+00  1.2761034725656049e+00  1.3326117550295666e+00  1.3889518833611352e+00  1.4444873588870364e+00  1.4989228729532287e+00  1.5529076443408965e+00  1.6058621685798311e+00  1.6583475048517795e+00  1.7101255160861906e+00  1.7611946706877126e+00  1.8113435014710233e+00  1.8610436345873769e+00  1.9098657113946673e+00  1.9580210556347861e+00  2.0056992163092189e+00  2.0525456993611777e+00  2.0987911231355239e+00  2.1441680946264379e+00  2.1886127752290903e+00  2.2324469532745219e+00  2.2756496374670929e+00  2.3180490649405581e+00  2.3600128790954731e+00  2.4010410479624409e+00  2.4415199104663325e+00  2.4810773114308033e+00  2.5198690409070745e+00  2.5581389987876904e+00  2.5956161886581679e+00  2.6324060691584741e+00  2.6683026406967425e+00  2.7039537978453763e+00  2.7385317490332861e+00  2.7724173317675653e+00  2.8056177856959557e+00  2.8380799616927010e+00  2.8700244922704004e+00  2.9011055736370586e+00  2.9314832589107462e+00  2.9611481200393497e+00  2.9900241307385471e+00  3.0181557947207107e+00  3.0456411887483892e+00  3.0724222637808345e+00  3.0985202005885735e+00  3.1239367902980510e+00  3.1487450131689831e+00  3.1725784558327721e+00  3.1957455195265729e+00  3.2182970654864551e+00  3.2401307535715684e+00  3.2611450324662941e+00  3.2815137549988962e+00  3.3011619826442153e+00  3.3200541424809091e+00  3.3381801321926612e+00  3.3557574395702452e+00  3.3726941525056562e+00  3.3886995029392173e+00  3.4041214843896683e+00  3.4186624566626054e+00  3.4326657726742797e+00  3.4458021280407007e+00  3.4582921385915935e+00  3.4700838843228978e+00  3.4812015939368961e+00  3.4915916822538935e+00  3.5012144120817994e+00  3.5101177627927438e+00  3.5183360081776538e+00  3.5258567729783516e+00  3.5326122116680967e+00  3.5387182372569717e+00  3.5440513707688326e+00  3.5485884519400308e+00  3.5526645931979677e+00  3.5559613898937363e+00  3.5583849707982487e+00  3.5601323994792908e+00  3.5612981410248219e+00  2.0899600153523609e-05  2.1090147344225796e-05  2.7595787699980752e-05  9.3823006420712214e-06  1.3268074930077973e-05  7.0522464629520446e-05  3.2319798340353372e-05  1.0645374407819804e-06  -1.2436392309448671e-05  2.8516169648408646e-05  1.0006294775936035e-05  2.4221440484374093e-06  1.0758202723665277e-05  6.9316709717524792e-05  5.6189968135286417e-05  7.0549767928687929e-05  4.4211643281413733e-05  -5.9509143946181955e-06  3.5728701812608543e-07  6.9846717131320183e-05  3.6558634764630566e-05  3.8335925324532984e-05  4.9918165617341312e-05  2.2311830766426525e-05  2.8131004309266772e-05  1.5888435389125731e-05  3.2396788354272636e-05  1.0817881525157596e-05  3.0099591099095975e-05  1.6729975265859941e-05  7.2829405728334427e-06  3.3487689303442389e-05  2.0517458956076421e-05  2.3650475765839599e-05  -1.8593597093386459e-06  3.0992356062700487e-05  6.5958812017554401e-05  -5.2962097196613460e-06  3.4491648370827004e-05  1.9729750230611847e-05  3.1380370595766620e-05  2.7697855471633964e-05  2.8416412918995038e-05  1.7533857178012994e-05  4.6592528991685095e-06  6.5674682281269573e-06  3.8684881964800635e-05  2.0964176679924662e-05  1.6431332074746850e-05  2.8723123579551570e-05  9.7202878230881324e-06  -1.9539819298494167e-06  5.5786667020751354e-06  3.7981805203553174e-05  1.9466646281994039e-05  1.8970463451107975e-05  2.5666516735832757e-05  1.8091503137884098e-05  2.2906995084511197e-05  3.2485588531080551e-05  -2.4721028797214568e-05  1.2402824352236860e-05  -1.8393382773938760e-06  -6.8958678940778323e-06  3.0366337190941418e-05  6.4398252159218340e-05  2.9229099212637435e-05  4.7394260789257709e-05  2.2041708797033710e-06  2.6968943470317886e-05  6.4329890241941038e-05  1.1977901139121865e-05  6.5496195800318868e-05  2.4310790436044938e-05  3.1833340295223808e-05  1.7318618363540107e-05  7.1650534071045099e-05  9.0345358834693150e-06  4.5749950403320373e-05  3.8756569803121895e-05  1.6033118424911913e-05  -8.2445284014590872e-06  2.8795197891808769e-06  -9.1381900837542487e-07  3.0806969921090766e-05  3.3646423945199593e-05  2.5765538110372076e-05  2.2984459203822251e-05  3.8401256082035860e-05  2.7556568727968977e-05  3.6290748304539847e-05  1.5784750241645030e-05  1.8273679704186828e-05  4.4603875583933048e-05  8.4006809735029457e-05  3.0123385137016334e+00  2.2133392531653295e+00  2.2069589949172124e+00  3.1811468162330518e+00  1.5770225517066219e+00  1.5752267343221742e+00  3.3983410644965399e+00  1.0710867023900021e+00  9.2956453605933298e-01  9.8181251279710802e-01  3.4908632250645493e+00  3.5164655984517732e+00  7.3520356022559707e-01  6.3326166899786906e-01  5.3810515333728459e-01  4.7525302820596299e-01  3.5462821050561861e+00  3.5444346095170096e+00  3.5548296827532040e+00  2.8463526077975460e-01  2.8195585058057115e-01  3.5584572656014029e+00  1.2850417265352523e-01  3.5601945609717527e+00  1.4603916417019197e-01  3.5598209841355950e+00  3.5610101434343133e+00  3.5610186289155159e+00  3.5609452868913536e+00  7.6822710873041627e-02  3.3627326959205357e+00  1.5202262437274157e+00  1.0687581516067568e+00  3.4368149067796372e+00  3.4619433071688510e+00  8.9374004408897967e-01  2.0736142300940239e+00  2.0348417661698428e+00  8.1779793507437126e-01  1.8400743313303241e+00  1.7282043553777158e+00  3.5375166879774924e+00  6.4551370053189072e-01  5.4432923190323035e-01  3.5461492680028037e+00  3.5429545195167020e+00  1.6654815630097972e+00  3.3099534535396384e+00  4.3743515938315736e-01  2.9082945018503823e+00  3.3818352380103254e+00  2.3928915066000114e+00  3.7066207519713762e-01  3.2956272312704042e+00  2.7861504490545608e+00  3.4136015302399176e+00  3.4212789310636169e+00  2.4809172501447407e+00  1.3439311215302923e+00  3.4030796297036359e+00  2.8271194951651482e+00  3.2030761651238365e-01  3.1789209742536819e+00  2.5267369770949588e+00  3.4382826667044517e+00  3.4369457238682295e+00  2.5786476013902293e-01  2.9295301900056825e-01  1.1425914178201604e+00  3.1033192072341085e+00  9.5175249826571184e-01  3.4484684243070256e+00  3.4528318463946031e+00  1.0764569906900237e+00  1.0693668378205095e+00  3.5584331564893152e+00  9.3928420024048531e-01  3.4731968904052288e+00  3.4639473653257351e+00  1.5476582401733868e-01  1.7137668522156083e-01  1.0022356459861639e+00  8.2604593033231422e-01  1.0166622773819924e+00  3.1823196603518404e+00  3.4849858575717825e+00  3.4839315162745699e+00  2.0812771512763639e+00  3.5595731886608131e+00  3.5598005748124755e+00  2.6047238664882584e+00  8.7356105762096936e-01  3.5135701241618302e+00  6.2027475761527184e-01  3.5607391038655196e+00  3.5608149426461244e+00  7.6551346878902293e-01  2.6869187166241906e+00  6.9221844487433748e-01  3.5210840783679682e+00  3.5214830132517463e+00  3.5338211431120832e+00  3.5339388172832589e+00  2.9773630302171390e+00  5.1158086849482631e-01  3.5542416535493113e+00  5.0702818575444508e-01  3.5545936617789140e+00  3.4303694669301246e+00  3.4384642599252384e+00  3.5344114740851138e+00  3.5358405218260973e+00  4.1259425801216160e-01  4.2391421461441992e-01  3.0402645527129335e-01  3.5498301508211609e+00  3.5449587377958940e+00  3.0031048010761840e-01  3.5505690453511263e+00  3.5437132277954100e+00  3.5570943158535728e+00  1.4169756881462270e-01  1.4846917996554962e-01  3.5603349881425506e+00  3.5603541074066802e+00  7.8785757129164566e-02  8.8942243147718897e-02  3.5588956115208665e+00  3.4128400280293483e+00  3.4453440643442268e+00  3.4507357582936957e+00  3.5520891533693781e+00  3.4387484415980224e-01  3.3781440960709447e-01  4.9993704842758474e-01  8.6584799051871264e-01  1.0358113880898867e+00  1.8903081751505693e-01  2.0316711768800452e-01  3.2325282653297029e+00  3.2776414670095222e+00  3.3353288593376966e+00  1.8064623182850643e+00  1.4163430800288206e+00  3.2760879926490767e+00  3.4866224734712254e+00  3.4577444556333394e+00  1.9708229849326893e+00  3.0346640457482250e+00  1.3241146740992165e+00  1.8938814473036765e+00  3.3630164591675471e+00  3.5553803093069369e+00  3.4793423472988483e+00  1.1676283700198273e+00  2.3138513256154702e+00  3.1668728884349431e+00  1.2767191473371255e+00  2.2599164365264568e+00  2.8871788261668256e+00  2.0522073746944640e+00  3.4910821711207838e+00  1.6266187189715868e+00  3.3354334131039587e+00  3.5555432435131600e+00  3.5577209013927553e+00  3.2198029296231461e+00  2.2915877334934112e+00  2.8909047499753187e+00  3.4535752934699708e+00  1.2481082878100294e+00  2.3888114835718333e+00  1.7435296650044276e+00  1.8980705803180078e+00  1.9423076443084475e+00  3.3907987374482946e+00  2.5604734378048528e+00  3.2641753226272807e+00  2.5620214468867544e+00  2.5588710300060362e+00  2.2943061769772499e+00  1.2241892740083113e+00  2.6721744733545170e+00  3.5592221036180205e+00  3.5596735313147509e+00  2.7201593033318834e+00  2.7459996084089395e+00  3.3635517710831433e+00  1.3401409018360608e+00  2.5092834116586191e+00  2.9448274618390702e+00  3.0481940977793038e+00  2.2822846305253699e+00  3.2289697037148675e+00  1.7636901227528718e+00  2.7333310147261716e+00  3.3024708789845865e+00  2.7771346960985182e+00  1.7996792948031965e+00  2.1234367277329889e+00  3.5009606805585176e+00  1.8386367510948762e+00  2.1115435097563626e+00  2.5523804797927774e+00  2.8615875498789203e+00  1.6592882300933605e+00  2.8368275313177107e+00  3.0753642567724357e+00  2.1229731885728902e+00  1.3994485400312049e+00  3.4059108147523971e+00  6.8822758267855610e-01  3.4055657340590786e+00  1.9257116799778151e+00  2.9268010842324235e+00  2.4545929165054980e+00  2.4430312973115376e+00  2.9150986741687697e+00  2.4183978904139658e+00  3.4524533104975084e+00  4.8144293766683505e-01  7.2654334148179966e-01  2.9900300984624391e+00  3.3789060782328200e+00  2.1976332080757315e+00  2.6123038083410548e+00  3.5606955562299483e+00  3.5608068699293227e+00  2.6657993246453726e+00  3.0193505525418876e+00  3.3447623415713146e+00  7.2070420825023962e-02  7.0433136253720413e-02  3.0069824682512047e+00  3.2533241841738354e+00  2.4917585545177179e+00  3.1421795453131947e+00  5.8870545725538403e-01  1.0820866878851418e+00  3.3986061948194551e-01  1.4974192476714403e+00  3.4258073836619611e+00  2.2529794822294540e+00  2.6379643266712821e-01  4.0173580122409391e-01  1.2023449561209303e+00  2.1874111222359591e+00  1.6167007125392610e+00  1.5403993719899705e+00  3.8107312173042857e-01  1.7609820403365919e+00  3.1627376988511293e+00  3.3250377808766727e+00  3.5419960335679925e+00  3.4576854856093671e+00  2.2408845105379056e+00  3.0991909647175797e+00  2.4633363938533853e-01  6.8356234735632282e-01  3.1102356613435616e+00  1.1278692079236177e+00  2.5026475499097106e-01  1.8790553522747988e+00  3.5112683642698297e+00  3.5077532847214168e+00  3.2923268840486841e+00  3.5831585106294589e-01  3.5293280592968217e+00  3.5296919522508321e+00  4.4638080895847820e-01  6.5225474730417821e-01  4.7560636707125120e-01  4.5012053278245290e-01  1.2151762925095182e+00  5.6847435