<?xml version="1.0"?>
<VTKFile type="UnstructuredGrid"  version="0.1"  >
<UnstructuredGrid>
<Piece  NumberOfPoints="4963" NumberOfCells="14934">
<Points>
<DataArray  type="Float64"  NumberOfComponents="3"  format="ascii">0 0.9 0  0.45 0.9 0  0.45 0 0  0.55 0 0  0.55 0.9 0  1 0.9 0  1 1 0  0 1 0  0 0.9 10  0.45 0.9 10  0.45 0 10  0.55 0 10  0.55 0.9 10  1 0.9 10  1 1 10  0 1 10  0.08999999999980426 0.9 0  0.1799999999995429 0.9 0  0.2699999999995232 0.9 0  0.3599999999997603 0.9 0  0.45 0.8000000000001036 0  0.45 0.700000000000306 0  0.45 0.6000000000006001 0  0.45 0.500000000000988 0  0.45 0.4000000000010241 0  0.45 0.3000000000007592 0  0.45 0.2000000000005064 0  0.45 0.1000000000002536 0  0.55 0.09999999999982175 0  0.55 0.1999999999995504 0  0.55 0.29999999999926 0  0.55 0.3999999999989697 0  0.55 0.499999999998943 0  0.55 0.5999999999992162 0  0.55 0.6999999999994773 0  0.55 0.7999999999997383 0  0.6399999999997097 0.9 0  0.7299999999994582 0.9 0  0.8199999999995407 0.9 0  0.9099999999998571 0.9 0  0.8999999999995836 1 0  0.7999999999999998 1 0  0.7000000000006934 1 0  0.6000000000013869 1 0  0.5000000000020587 1 0  0.4000000000016644 1 0  0.3000000000012483 1 0  0.2000000000008322 1 0  0.100000000000416 1 0  0.08999999999980426 0.9 10  0.1799999999995429 0.9 10  0.2699999999995232 0.9 10  0.3599999999997603 0.9 10  0.45 0.8000000000001036 10  0.45 0.700000000000306 10  0.45 0.6000000000006001 10  0.45 0.500000000000988 10  0.45 0.4000000000010241 10  0.45 0.3000000000007592 10  0.45 0.2000000000005064 10  0.45 0.1000000000002536 10  0.55 0.09999999999982175 10  0.55 0.1999999999995504 10  0.55 0.29999999999926 10  0.55 0.3999999999989697 10  0.55 0.499999999998943 10  0.55 0.5999999999992162 10  0.55 0.6999999999994773 10  0.55 0.7999999999997383 10  0.6399999999997097 0.9 10  0.7299999999994582 0.9 10  0.8199999999995407 0.9 10  0.9099999999998571 0.9 10  0.8999999999995836 1 10  0.7999999999999998 1 10  0.7000000000006934 1 10  0.6000000000013869 1 10  0.5000000000020587 1 10  0.4000000000016644 1 10  0.3000000000012483 1 10  0.2000000000008322 1 10  0.100000000000416 1 10  0 0.9 0.09999999999992584  0 0.9 0.199999999999856  0 0.9 0.2999999999997771  0 0.9 0.3999999999996677  0 0.9 0.4999999999995511  0 0.9 0.5999999999994683  0 0.9 0.6999999999993983  0 0.9 0.7999999999993286  0 0.9 0.8999999999992587  0 0.9 0.9999999999991888  0 0.9 1.099999999999119  0 0.9 1.199999999999033  0 0.9 1.299999999998852  0 0.9 1.399999999998576  0 0.9 1.499999999998284  0 0.9 1.599999999997992  0 0.9 1.6999999999977  0 0.9 1.799999999997408  0 0.9 1.899999999997116  0 0.9 1.999999999996825  0 0.9 2.099999999996533  0 0.9 2.199999999996241  0 0.9 2.299999999995949  0 0.9 2.399999999995657  0 0.9 2.499999999995365  0 0.9 2.599999999995073  0 0.9 2.699999999994782  0 0.9 2.79999999999449  0 0.9 2.899999999994198  0 0.9 2.999999999993906  0 0.9 3.099999999993614  0 0.9 3.199999999993322  0 0.9 3.299999999993029  0 0.9 3.399999999992738  0 0.9 3.499999999992446  0 0.9 3.599999999992154  0 0.9 3.699999999991863  0 0.9 3.799999999991571  0 0.9 3.899999999991278  0 0.9 3.999999999991022  0 0.9 4.099999999991035  0 0.9 4.199999999991187  0 0.9 4.299999999991338  0 0.9 4.399999999991491  0 0.9 4.499999999991642  0 0.9 4.599999999991795  0 0.9 4.699999999991947  0 0.9 4.799999999992099  0 0.9 4.89999999999225  0 0.9 4.999999999992403  0 0.9 5.099999999992555  0 0.9 5.199999999992706  0 0.9 5.299999999992858  0 0.9 5.39999999999301  0 0.9 5.499999999993161  0 0.9 5.599999999993313  0 0.9 5.699999999993466  0 0.9 5.799999999993618  0 0.9 5.899999999993771  0 0.9 5.999999999993922  0 0.9 6.099999999994074  0 0.9 6.199999999994227  0 0.9 6.299999999994378  0 0.9 6.39999999999453  0 0.9 6.499999999994682  0 0.9 6.599999999994833  0 0.9 6.699999999994986  0 0.9 6.799999999995138  0 0.9 6.899999999995289  0 0.9 6.999999999995442  0 0.9 7.099999999995594  0 0.9 7.199999999995747  0 0.9 7.299999999995897  0 0.9 7.39999999999605  0 0.9 7.499999999996202  0 0.9 7.599999999996353  0 0.9 7.699999999996505  0 0.9 7.799999999996658  0 0.9 7.899999999996808  0 0.9 7.999999999996962  0 0.9 8.099999999997113  0 0.9 8.199999999997265  0 0.9 8.299999999997418  0 0.9 8.399999999997569  0 0.9 8.499999999997721  0 0.9 8.599999999997873  0 0.9 8.699999999998024  0 0.9 8.799999999998176  0 0.9 8.899999999998329  0 0.9 8.999999999998479  0 0.9 9.099999999998634  0 0.9 9.199999999998786  0 0.9 9.299999999998937  0 0.9 9.399999999999089  0 0.9 9.499999999999241  0 0.9 9.599999999999392  0 0.9 9.699999999999545  0 0.9 9.799999999999697  0 0.9 9.899999999999848  0.45 0.9 0.09999999999992584  0.45 0.9 0.199999999999856  0.45 0.9 0.2999999999997771  0.45 0.9 0.3999999999996677  0.45 0.9 0.4999999999995511  0.45 0.9 0.5999999999994683  0.45 0.9 0.6999999999993983  0.45 0.9 0.7999999999993286  0.45 0.9 0.8999999999992587  0.45 0.9 0.9999999999991888  0.45 0.9 1.099999999999119  0.45 0.9 1.199999999999033  0.45 0.9 1.299999999998852  0.45 0.9 1.399999999998576  0.45 0.9 1.499999999998284  0.45 0.9 1.599999999997992  0.45 0.9 1.6999999999977  0.45 0.9 1.799999999997408  0.45 0.9 1.899999999997116  0.45 0.9 1.999999999996825  0.45 0.9 2.099999999996533  0.45 0.9 2.199999999996241  0.45 0.9 2.299999999995949  0.45 0.9 2.399999999995657  0.45 0.9 2.499999999995365  0.45 0.9 2.599999999995073  0.45 0.9 2.699999999994782  0.45 0.9 2.79999999999449  0.45 0.9 2.899999999994198  0.45 0.9 2.999999999993906  0.45 0.9 3.099999999993614  0.45 0.9 3.199999999993322  0.45 0.9 3.299999999993029  0.45 0.9 3.399999999992738  0.45 0.9 3.499999999992446  0.45 0.9 3.599999999992154  0.45 0.9 3.699999999991863  0.45 0.9 3.799999999991571  0.45 0.9 3.899999999991278  0.45 0.9 3.999999999991022  0.45 0.9 4.099999999991035  0.45 0.9 4.199999999991187  0.45 0.9 4.299999999991338  0.45 0.9 4.399999999991491  0.45 0.9 4.499999999991642  0.45 0.9 4.599999999991795  0.45 0.9 4.699999999991947  0.45 0.9 4.799999999992099  0.45 0.9 4.89999999999225  0.45 0.9 4.999999999992403  0.45 0.9 5.099999999992555  0.45 0.9 5.199999999992706  0.45 0.9 5.299999999992858  0.45 0.9 5.39999999999301  0.45 0.9 5.499999999993161  0.45 0.9 5.599999999993313  0.45 0.9 5.699999999993466  0.45 0.9 5.799999999993618  0.45 0.9 5.899999999993771  0.45 0.9 5.999999999993922  0.45 0.9 6.099999999994074  0.45 0.9 6.199999999994227  0.45 0.9 6.299999999994378  0.45 0.9 6.39999999999453  0.45 0.9 6.499999999994682  0.45 0.9 6.599999999994833  0.45 0.9 6.699999999994986  0.45 0.9 6.799999999995138  0.45 0.9 6.899999999995289  0.45 0.9 6.999999999995442  0.45 0.9 7.099999999995594  0.45 0.9 7.199999999995747  0.45 0.9 7.299999999995897  0.45 0.9 7.39999999999605  0.45 0.9 7.499999999996202  0.45 0.9 7.599999999996353  0.45 0.9 7.699999999996505  0.45 0.9 7.799999999996658  0.45 0.9 7.899999999996808  0.45 0.9 7.999999999996962  0.45 0.9 8.099999999997113  0.45 0.9 8.199999999997265  0.45 0.9 8.299999999997418  0.45 0.9 8.399999999997569  0.45 0.9 8.499999999997721  0.45 0.9 8.599999999997873  0.45 0.9 8.699999999998024  0.45 0.9 8.799999999998176  0.45 0.9 8.899999999998329  0.45 0.9 8.999999999998479  0.45 0.9 9.099999999998634  0.45 0.9 9.199999999998786  0.45 0.9 9.299999999998937  0.45 0.9 9.399999999999089  0.45 0.9 9.499999999999241  0.45 0.9 9.599999999999392  0.45 0.9 9.699999999999545  0.45 0.9 9.799999999999697  0.45 0.9 9.899999999999848  0.45 0 0.09999999999992584  0.45 0 0.199999999999856  0.45 0 0.2999999999997771  0.45 0 0.3999999999996677  0.45 0 0.4999999999995511  0.45 0 0.5999999999994683  0.45 0 0.6999999999993983  0.45 0 0.7999999999993286  0.45 0 0.8999999999992587  0.45 0 0.9999999999991888  0.45 0 1.099999999999119  0.45 0 1.199999999999033  0.45 0 1.299999999998852  0.45 0 1.399999999998576  0.45 0 1.499999999998284  0.45 0 1.599999999997992  0.45 0 1.6999999999977  0.45 0 1.799999999997408  0.45 0 1.899999999997116  0.45 0 1.999999999996825  0.45 0 2.099999999996533  0.45 0 2.199999999996241  0.45 0 2.299999999995949  0.45 0 2.399999999995657  0.45 0 2.499999999995365  0.45 0 2.599999999995073  0.45 0 2.699999999994782  0.45 0 2.79999999999449  0.45 0 2.899999999994198  0.45 0 2.999999999993906  0.45 0 3.099999999993614  0.45 0 3.199999999993322  0.45 0 3.299999999993029  0.45 0 3.399999999992738  0.45 0 3.499999999992446  0.45 0 3.599999999992154  0.45 0 3.699999999991863  0.45 0 3.799999999991571  0.45 0 3.899999999991278  0.45 0 3.999999999991022  0.45 0 4.099999999991035  0.45 0 4.199999999991187  0.45 0 4.299999999991338  0.45 0 4.399999999991491  0.45 0 4.499999999991642  0.45 0 4.599999999991795  0.45 0 4.699999999991947  0.45 0 4.799999999992099  0.45 0 4.89999999999225  0.45 0 4.999999999992403  0.45 0 5.099999999992555  0.45 0 5.199999999992706  0.45 0 5.299999999992858  0.45 0 5.39999999999301  0.45 0 5.499999999993161  0.45 0 5.599999999993313  0.45 0 5.699999999993466  0.45 0 5.799999999993618  0.45 0 5.899999999993771  0.45 0 5.999999999993922  0.45 0 6.099999999994074  0.45 0 6.199999999994227  0.45 0 6.299999999994378  0.45 0 6.39999999999453  0.45 0 6.499999999994682  0.45 0 6.599999999994833  0.45 0 6.699999999994986  0.45 0 6.799999999995138  0.45 0 6.899999999995289  0.45 0 6.999999999995442  0.45 0 7.099999999995594  0.45 0 7.199999999995747  0.45 0 7.299999999995897  0.45 0 7.39999999999605  0.45 0 7.499999999996202  0.45 0 7.599999999996353  0.45 0 7.699999999996505  0.45 0 7.799999999996658  0.45 0 7.899999999996808  0.45 0 7.999999999996962  0.45 0 8.099999999997113  0.45 0 8.199999999997265  0.45 0 8.299999999997418  0.45 0 8.399999999997569  0.45 0 8.499999999997721  0.45 0 8.599999999997873  0.45 0 8.699999999998024  0.45 0 8.799999999998176  0.45 0 8.899999999998329  0.45 0 8.999999999998479  0.45 0 9.099999999998634  0.45 0 9.199999999998786  0.45 0 9.299999999998937  0.45 0 9.399999999999089  0.45 0 9.499999999999241  0.45 0 9.599999999999392  0.45 0 9.699999999999545  0.45 0 9.799999999999697  0.45 0 9.899999999999848  0.55 0 0.09999999999992584  0.55 0 0.199999999999856
[...]
<PointData  Scalars="f_32"> 
<DataArray  type="Float64"  Name="f_32"  format="ascii">2.0968994502127240e-06  2.3458492071369377e-05  1.5418620795774193e-05  2.5318162056449112e-05  1.5753741192454166e-05  2.4683609712860883e-06  -5.7111853002210066e-08  1.0272297850181971e-06  1.3887830524463942e+00  1.3851143586215409e+00  1.4655268436488753e+00  1.4655255256597106e+00  1.3851184262714389e+00  1.3887868592013639e+00  1.3800091792016491e+00  1.3800041338118454e+00  1.0179925638242374e-06  2.1987239658369603e-06  3.0368833877759360e-06  1.9629559183977729e-07  8.0876544192888671e-07  5.0698643362470945e-05  1.3709065172703928e-05  4.7422357710555208e-05  5.7406740234621177e-06  3.0794571543243312e-05  -3.2964654763748365e-06  3.2854368505918177e-05  4.1029217433755276e-05  4.6006749371474317e-05  5.2568394167409972e-06  2.5178136426015831e-05  2.5495834229001904e-05  2.5194875747084853e-06  6.8227758157188296e-06  5.4141430225150599e-05  -3.1043906604850385e-06  2.7821891778102385e-06  1.6064526008172671e-06  1.0304366627621062e-06  1.2469066765315728e-06  1.8358803064481874e-06  2.7960032081909430e-06  4.3998682374791114e-06  -5.2234840839345349e-06  5.6431786067972650e-07  4.8994272329409432e-06  1.5477095993406013e-06  3.5363672833116371e-06  1.3875704533355764e+00  1.3865863104232261e+00  1.3858510882017701e+00  1.3853638315203711e+00  1.3940137279810421e+00  1.4029607711170751e+00  1.4118940262575905e+00  1.4208316905074654e+00  1.4297834415990975e+00  1.4387227593235938e+00  1.4476639291699323e+00  1.4566039246853271e+00  1.4565877315058016e+00  1.4476792685862068e+00  1.4387333925558736e+00  1.4297754932357860e+00  1.4208541789049800e+00  1.4118858192412405e+00  1.4029493889037126e+00  1.3940330103965723e+00  1.3853658321656379e+00  1.3858557418296533e+00  1.3865905788019961e+00  1.3875791418183749e+00  1.3786536288066782e+00  1.3775982936969495e+00  1.3768564163594166e+00  1.3763924062569308e+00  1.3762376561049592e+00  1.3763917685188554e+00  1.3768388776044547e+00  1.3776001199885768e+00  1.3786529503174649e+00  2.9330199175638637e-03  5.7268629008298778e-03  8.6969746491212755e-03  1.1916571637951626e-02  1.5385716997775144e-02  1.9212122909621720e-02  2.3336648561815103e-02  2.7863945944304504e-02  3.2770562224604838e-02  3.7995282562550484e-02  4.3650527821530324e-02  4.9575794424517351e-02  5.5993029443275139e-02  6.2734392815141218e-02  6.9841969305515644e-02  7.7398524377990482e-02  8.5278143159424363e-02  9.3421283639248634e-02  1.0195037287680005e-01  1.1078800930221308e-01  1.2006403797881554e-01  1.2956547033064106e-01  1.3947754976768131e-01  1.4971793198831035e-01  1.6018195525516701e-01  1.7098518918742578e-01  1.8202916504310063e-01  1.9349301502877866e-01  2.0510505799276071e-01  2.1703853753205751e-01  2.2920820319284627e-01  2.4172135309737675e-01  2.5444624831678164e-01  2.6743903466935948e-01  2.8051627855530681e-01  2.9401055701589007e-01  3.0769206741993033e-01  3.2159860293030612e-01  3.3569474674551120e-01  3.4993660357540302e-01  3.6441515722715379e-01  3.7913432282482340e-01  3.9396164605551753e-01  4.0898142371248736e-01  4.2409995651747540e-01  4.3954558419457940e-01  4.5503088483966309e-01  4.7066380841061728e-01  4.8646285131171280e-01  5.0245805631716545e-01  5.1859350331517207e-01  5.3479609894271807e-01  5.5115111126564720e-01  5.6759013690716331e-01  5.8413209306068503e-01  6.0085143394984564e-01  6.1767881396571911e-01  6.3458414431309351e-01  6.5159193108948499e-01  6.6869548171217630e-01  6.8586024834417603e-01  7.0311672974856798e-01  7.2045684469843740e-01  7.3790662145363872e-01  7.5536963689474390e-01  7.7294200264856749e-01  7.9053389852895772e-01  8.0818546823620296e-01  8.2595278523781634e-01  8.4373272776105701e-01  8.6154611014804805e-01  8.7940850037755536e-01  8.9732645631264474e-01  9.1528110462971290e-01  9.3331361815497349e-01  9.5133730879609646e-01  9.6938885786945961e-01  9.8750669973086536e-01  1.0056034262795577e+00  1.0237144493018331e+00  1.0418877458284597e+00  1.0600900660615684e+00  1.0782524904412643e+00  1.0965035789721096e+00  1.1146865895400011e+00  1.1329727956120184e+00  1.1511847322501876e+00  1.1694619861399138e+00  1.1877186857836268e+00  1.2059680494862073e+00  1.2242848230485277e+00  1.2425439513519299e+00  1.2608153607986714e+00  1.2790969814630562e+00  1.2973749535519095e+00  1.3156454296900930e+00  1.3339201631549145e+00  1.3522291321164872e+00  1.3705153573927580e+00  2.8849646017642302e-04  1.2316284047163123e-03  2.7131131464824846e-03  4.7186576928782793e-03  7.3554281363715996e-03  1.0424432196629013e-02  1.4019935387015757e-02  1.8063174967981096e-02  2.2566324317480090e-02  2.7520901779080027e-02  3.2919570479491761e-02  3.8765973221421973e-02  4.4999903999884669e-02  5.1659176419964536e-02  5.8721961295050862e-02  6.6181873824700782e-02  7.4019524388763691e-02  8.2200143070609272e-02  9.0793803769452244e-02  9.9692187884268993e-02  1.0900418321377180e-01  1.1863941318278841e-01  1.2862123430419412e-01  1.3890607332695870e-01  1.4952025829035884e-01  1.6043266199146386e-01  1.7161684281827849e-01  1.8313629257823141e-01  1.9489460123644770e-01  2.0698823542319197e-01  2.1928830436920718e-01  2.3184265605896992e-01  2.4472013076320051e-01  2.5782839175721384e-01  2.7110444497130665e-01  2.8470458743152804e-01  2.9843024758683667e-01  3.1243632597054433e-01  3.2661996023917228e-01  3.4102604322475943e-01  3.5564074628917941e-01  3.7041337848389516e-01  3.8538116768183400e-01  4.0052604463028729e-01  4.1579948330941807e-01  4.3128977495966014e-01  4.4692685052593295e-01  4.6269943299708416e-01  4.7864057499087115e-01  4.9471852774075920e-01  5.1091582079870912e-01  5.2727894481643822e-01  5.4374215870550680e-01  5.6029286640531728e-01  5.7699536520603190e-01  5.9381338795583238e-01  6.1072492012016555e-01  6.2771814954267691e-01  6.4480096796907549e-01  6.6199489816999724e-01  6.7928361983070140e-01  6.9664194529094037e-01  7.1409419539437158e-01  7.3160559878793263e-01  7.4918730963670699e-01  7.6683255538102291e-01  7.8454201236994603e-01  8.0230643627074405e-01  8.2013861065703120e-01  8.3800836448203520e-01  8.5591847408477906e-01  8.7388097970306933e-01  8.9187053575453912e-01  9.0992392733241423e-01  9.2802535336500469e-01  9.4612083588592566e-01  9.6425869104549466e-01  9.8243311450262860e-01  1.0006211733308654e+00  1.0188215069558808e+00  1.0370683696908092e+00  1.0553273342071319e+00  1.0735805336730389e+00  1.0918831621036171e+00  1.1101701035456359e+00  1.1284635905205320e+00  1.1467903969745727e+00  1.1651122680784902e+00  1.1834231225001872e+00  1.2017618492889741e+00  1.2200981600558320e+00  1.2384375966594354e+00  1.2567742882538411e+00  1.2751156743666008e+00  1.2934556031420488e+00  1.3117883730729278e+00  1.3301201024822766e+00  1.3484485915022706e+00  1.3667826854767351e+00  7.6309704623994689e-04  2.1671796551307088e-03  4.4477494421820609e-03  7.5787223659129254e-03  1.1550410632690329e-02  1.5989871615861646e-02  2.0963504092289337e-02  2.6709284091955072e-02  3.2673664630971572e-02  3.9120513619158519e-02  4.6253957705290609e-02  5.3445389809950380e-02  6.1032042426143622e-02  6.9053967496837509e-02  7.7522682691248054e-02  8.6341656187147772e-02  9.5674336214727596e-02  1.0529720752078338e-01  1.1537318871165872e-01  1.2571264926883785e-01  1.3648096419102659e-01  1.4749015243432329e-01  1.5889962304917521e-01  1.7058351314950601e-01  1.8249495581082809e-01  1.9463563997346386e-01  2.0706533053737228e-01  2.1980218682381386e-01  2.3273949413520664e-01  2.4600585519232140e-01  2.5943773833449313e-01  2.7332063248209609e-01  2.8736012845735620e-01  3.0150505828509272e-01  3.1605365869368757e-01  3.3067041684923870e-01  3.4540009043977860e-01  3.6034523226240278e-01  3.7572220247383015e-01  3.9121790950433882e-01  4.0677584917920889e-01  4.2257567891176617e-01  4.3854213571250200e-01  4.5470549633202578e-01  4.7090177479899781e-01  4.8738270150674240e-01  5.0391573370272669e-01  5.2051390619769422e-01  5.3732725515565283e-01  5.5433380678545585e-01  5.7141019068271637e-01  5.8858670121797574e-01  6.0584216623716303e-01  6.2316397354406206e-01  6.4058672856841847e-01  6.5804890851769482e-01  6.7557067970313944e-01  6.9316837026505740e-01  7.1089110815571288e-01  7.2873319122714852e-01  7.4669339199459495e-01  7.6473106209538433e-01  7.8280348137113520e-01  8.0093484801689430e-01  8.1906661054350693e-01  8.3726899804007016e-01  8.5550392175683998e-01  8.7374128226124748e-01  8.9206502379270336e-01  9.1044768443820434e-01  9.2884849420019988e-01  9.4728158633342685e-01  9.6574636107994960e-01  9.8423482778024329e-01  1.0027186947261704e+00  1.0212411216281361e+00  1.0397661568275336e+00  1.0583147452440143e+00  1.0768722603376171e+00  1.0954408431366964e+00  1.1139913988523575e+00  1.1325412226721230e+00  1.1511135589792358e+00  1.1696660101884058e+00  1.1882137105688422e+00  1.2067902290581334e+00  1.2253204210102380e+00  1.2438662149968469e+00  1.2624060424753309e+00  1.2809383345695360e+00  1.2994455687118891e+00  1.3179321662247676e+00  1.3364320127877811e+00  1.3548887107001353e+00  1.3733526379685490e+00  1.3918014913733925e+00  1.4102438734238532e+00  1.4286911672318605e+00  1.4470901830879350e+00  7.5817893243334633e-04  2.1565461418895774e-03  4.3185025493488842e-03  7.6388900659658948e-03  1.1542715914317297e-02  1.6013733680928295e-02  2.0940626795657592e-02  2.6700635579486494e-02  3.2739449439133830e-02  3.9171843313456599e-02  4.6204016118390222e-02  5.3496159219410269e-02  6.1120057167529614e-02  6.9145848096634252e-02  7.7631137607103703e-02  8.6439822191798757e-02  9.5758496113830985e-02  1.0536709824927154e-01  1.1538194362885568e-01  1.2568327851566535e-01  1.3650089714672931e-01  1.4749818896034878e-01  1.5883037432190461e-01  1.7054534313080028e-01  1.8255404021528049e-01  1.9464990255812792e-01  2.0708816143818271e-01  2.1973408512337664e-01  2.3270878279035109e-01  2.4597565128430116e-01  2.5948026753521425e-01  2.7331922985535057e-01  2.8734570242210533e-01  3.0156030399087219e-01  3.1607686258628775e-01  3.3068592177372769e-01  3.4542468125939690e-01  3.6040453776213410e-01  3.7573540018129514e-01  3.9118928733524405e-01  4.0680572869273252e-01  4.2252022267861422e-01  4.3850218720025436e-01  4.5463999611991673e-01  4.7092981281525592e-01  4.8734375755867776e-01  5.0386504709541824e-01  5.2053373104700773e-01  5.3731865053058558e-01  5.5428459781470474e-01  5.7136608751615381e-01  5.8857550850435703e-01  6.0585124847222049e-01  6.2317386829213972e-01  6.4059298917627083e-01  6.5805974839980796e-01  6.7555559715331270e-01  6.9315844499154500e-01  7.1092337520749938e-01  7.2872166485013445e-01  7.4673275474730105e-01  7.6476962668041315e-01  7.8283787711418884e-01  8.0094601580504188e-01  8.1907828215383005e-01  8.3726039635615090e-01  8.5546877077732852e-01  8.7375209438435320e-01  8.9207813815888770e-01  9.1044803460382384e-01  9.2883880205602687e-01  9.4729658829364249e-01  9.6574361197639846e-01  9.8422014863931517e-01  1.0027331173675358e+00  1.0212273420373632e+00  1.0397648666466728e+00  1.0582879088865602e+00  1.0768560448007038e+00  1.0954165189591576e+00  1.1139888019781545e+00  1.1325514157318068e+00  1.1510984670133366e+00  1.1696782422305354e+00  1.1882404164654374e+00  1.2067623777519894e+00  1.2253405051841939e+00  1.2438830957422682e+00  1.2624139879484024e+00  1.2809315740336089e+00  1.2994369577932943e+00  1.3179422800504474e+00  1.3364142474187681e+00  1.3549035428975047e+00  1.3733651858046074e+00  1.3918182029376216e+00  1.4102610005492013e+00  1.4286714932856410e+00  1.4471092194330324e+00  3.0535220999778988e-04  1.2282498864918151e-03  2.7147414370782652e-03  4.7183789038073827e-03  7.3246856290781499e-03  1.0415664172388775e-02  1.3991010419396281e-02  1.8059391552397941e-02  2.2532402833125274e-02  2.7500270268008001e-02  3.2898710254175144e-02  3.8745889653809748e-02  4.4992176693620489e-02  5.1630593869111917e-02  5.8708010787946664e-02  6.6164150089309162e-02  7.4008701784956540e-02  8.2206708642299842e-02  9.0787633769809348e-02  9.9729489127840243e-02  1.0904578498242484e-01  1.1864022027674626e-01  1.2863309079281954e-01  1.3890986062991270e-01  1.4956934341814226e-01  1.6045088614020653e-01  1.7164852746996584e-01  1.8313075256392894e-01  1.9490719364742731e-01  2.0696506112454016e-01  2.1928663899645642e-01  2.3187047091508745e-01  2.4471623084493890e-01  2.5780177005486260e-01  2.7110962131452299e-01  2.8470353287471950e-01  2.9843493048772685e-01  3.1242446744030439e-01  3.2662441015641425e-01  3.4102031948651340e-01  3.5563192465503718e-01  3.7039838293133787e-01  3.8538135232914905e-01  4.0053116898822633e-01  4.1581535492962440e-01  4.3132070051743959e-01  4.4694200957105856e-01  4.6270520632318873e-01  4.7863919198127003e-01  4.9470571715625311e-01  5.1093166780173427e-01  5.2727515365090405e-01  5.4370279004869226e-01  5.6033146878268725e-01  5.7698465125897946e-01  5.9380809635550369e-01  6.1071516167525786e-01  6.2770855791475577e-01  6.4479976242283377e-01  6.6200304270730781e-01  6.7926339785826340e-01  6.9665143195744395e-01  7.1407441831035878e-01  7.3159706671225444e-01  7.4919628167815278e-01  7.6684820384077357e-01  7.8454191295317277e-01  8.0230213159595554e-01  8.2013012545825348e-01  8.3799930128428868e-01  8.5591945186541973e-01  8.7388446764915206e-01  8.9185823807713638e-01  9.0992353052390951e-01  9.2800438584935341e-01  9.4612032214045583e-01  9.6425488794432213e-01  9.8242809240140427e-01  1.0006213333135501e+00  1.0188287060616921e+00  1.0370610346484166e+00  1.0553260341690269e+00  1.0735783196911053e+00  1.0918741526568305e+00  1.1101699309712019e+00  1.1284802983068154e+00  1.1467864947697453e+00  1.1651069964493534e+00  1.1834322970642766e+00  1.2017643841409813e+00  1.2201022538163240e+00  1.2384331347017183e+00  1.2567734658306884e+00  1.2751082579795190e+00  1.2934416007422880e+00  1.3117766495769607e+00  1.3301104701485857e+00  1.3484520387416186e+00  1.3667817612225368e+00  2.9339310187387556e-03  5.7104960228684630e-03  8.6627110849145633e-03  1.1850766727620886e-02  1.5368923705734309e-02  1.9247251653529574e-02  2.3483594528617101e-02  2.7961388414157937e-02  3.2767583587641008e-02  3.8068228343952841e-02  4.3677437348411889e-02  4.9706958448243757e-02  5.6071199407742064e-02  6.2823978687077175e-02  6.9910040433349932e-02  7.7424377247229503e-02  8.5288908643000261e-02  9.3416231787316908e-02  1.0188874059807373e-01  1.1075499526599140e-01  1.1997986669946559e-01  1.2963000534038904e-01  1.3949071685759210e-01  1.4967210803765960e-01  1.6022344622676207e-01  1.7098785377937153e-01  1.8207997922434915e-01  1.9346147741203201e-01  2.0505890447007846e-01  2.1708839782463399e-01  2.2928697151925895e-01  2.4177028558906793e-01  2.5444225513727325e-01  2.6745980404192682e-01  2.8058216242911327e-01  2.9405067356843390e-01  3.0772552048850560e-01  3.2160950182892911e-01  3.3568627415262015e-01  3.4996105266013439e-01  3.6444541008423659e-01  3.7918232783732209e-01  3.9399551603434446e-01  4.0899782333466445e-01  4.2413200231055015e-01  4.3958222572983274e-01  4.5508108695705979e-01  4.7072412397904673e-01  4.8648784024858321e-01  5.0247575728610072e-01  5.1857376160984592e-01  5.3484565835675024e-01  5.5115926413243665e-01  5.6766636979410612e-01  5.8419867786231305e-01  6.0092716355725806e-01  6.1771064107447260e-01  6.3457662049713448e-01  6.5156303307932639e-01  6.6864820572879102e-01  6.8582957555597890e-01  7.0309447090830812e-01  7.2045100650173466e-01  7.3787360933124391e-01  7.5536418178652964e-01  7.7292635933041676e-01  7.9054271136403176e-01  8.0819428925688430e-01  8.2595877450103405e-01  8.4375091958401971e-01  8.6156727604962113e-01  8.7943919387638125e-01  8.9735836172606021e-01  9.1529599690001062e-01  9.3333283886380403e-01  9.5134381525699196e-01  9.6938716599543939e-01  9.8750971346484517e-01  1.0056027134308290e+00  1.0237447674281070e+00  1.0419165679897804e+00  1.0600881550268355e+00  1.0782629113065243e+00  1.0965147084127429e+00  1.1147371550731588e+00  1.1329594349635217e+00  1.1512240850687352e+00  1.1694730218562508e+00  1.1877141467033576e+00  1.2059998026973724e+00  1.2242953396455998e+00  1.2425545750234590e+00  1.2608249773845415e+00  1.2791148419153107e+00  1.2973954967078756e+00  1.3156789441885308e+00  1.3339647757457269e+00  1.3522124799510074e+00  1.3705255624439641e+00  3.2031368058098326e-03  6.1026210916800853e-03  9.0856276628805185e-03  1.2246921321880235e-02  1.5725444195310422e-02  1.9431582565763522e-02  2.3423692025548351e-02  2.7857271033521504e-02  3.2537445712162737e-02  3.7566215722032809e-02  4.2985714552188380e-02  4.8846295507315056e-02  5.5020268476980001e-02  6.1521846713335035e-02  6.8478446966856982e-02  7.5644012990298909e-02  8.3311928622357881e-02  9.1320655623075245e-02  9.9695287600452237e-02  1.0841718933709280e-01  1.1740647938891803e-01  1.2686026331825709e-01  1.3652377223693191e-01  1.4664529992227113e-01  1.5697692515793954e-01  1.6756644036706339e-01  1.7856956673388469e-01  1.8970324321632329e-01  2.0133913026244982e-01  2.1311125120929164e-01  2.2522339282111359e-01  2.3750458703388364e-01  2.5006792967199759e-01  2.6291567995214787e-01  2.7603395127149943e-01  2.8930432771041897e-01  3.0275375266209981e-01  3.1655141473927179e-01  3.3043418953142356e-01  3.4464761335109889e-01  3.5895299345496040e-01  3.7349747304318476e-01  3.8827861698471761e-01  4.0321153553235839e-01  4.1829748319365195e-01  4.3348544863358984e-01  4.4887664895534529e-01  4.6450900747809259e-01  4.8022133929990835e-01  4.9610638804183599e-01  5.1202814583877698e-01  5.2819555735725843e-01  5.4447353805226251e-01  5.6079361031517783e-01  5.7735583529593715e-01  5.9398011762844050e-01  6.1067245127097880e-01  6.2752642237512157e-01  6.4446912891229469e-01  6.6141421132122336e-01  6.7859566363182289e-01  6.9577708261677074e-01  7.1300263224277238e-01  7.3036925749527304e-01  7.4779606943174848e-01  7.6526736867810774e-01  7.8280312441337729e-01  8.0047290263260618e-01  8.1810570829712193e-01  8.3582362061144122e-01  8.5361540114149470e-01  8.7147134704867923e-01  8.8930353658184647e-01  9.0723178958394635e-01  9.2517813755317169e-01  9.4315967328758532e-01  9.6117479075114420e-01  9.7919562644594837e-01  9.9726927885517869e-01  1.0153700256536653e+00  1.0335103894482798e+00  1.0516518438609335e+00  1.0698278982787151e+00  1.0879872432261430e+00  1.1061664033381158e+00  1.1244174376877358e+00  1.1426192568238744e+00  1.1608700399074312e+00  1.1791088286558378e+00  1.1973278335479809e+00  1.2155875967303635e+00  1.2338367962181451e+00  1.2521302977329807e+00  1.2703673003485412e+00  1.2886468315461819e+00  1.3069120598462414e+00  1.3251827871163866e+00  1.3434674760816212e+00  1.3617295528304958e+00  3.2757328435558015e-03  6.1236040423893537e-03  9.0943277700561171e-03  1.2292505520730732e-02  1.5757466531603315e-02  1.9471934854202375e-02  2.3364345809334209e-02  2.7762708229200583e-02  3.2562050722614477e-02  3.7593908081520383e-02  4.3001516189500669e-02  4.8757953008923757e-02  5.5047825597448904e-02  6.1529245296710111e-02  6.8358504716325888e-02  7.5687366935016279e-02  8.3416162515305481e-02  9.1359882021505523e-02  9.9735119395255326e-02  1.0841996997807808e-01  1.1744021489938557e-01  1.2678704632831306e-01  1.3649046884110527e-01  1.4656624506000904e-01  1.5696583327735378e-01  1.6759447009836870e-01  1.7855624386000299e-01  1.8982458289612747e-01  2.0132084181514576e-01  2.1308859204334671e-01  2.2511848476815075e-01  2.3759319571593529e-01  2.5001292954262067e-01  2.6292260421550190e-01  2.7598270689490290e-01  2.8923774553524173e-01  3.0272051909608033e-01  3.1657270231390289e-01  3.3042942320703050e-01  3.4463214991596003e-01  3.5901199778106463e-01  3.7348414024885318e-01  3.8826949697023216e-01  4.0320170245376274e-01  4.1827351926576550e-01  4.3347866336413882e-01  4.4892857262314800e-01  4.6449469376123020e-01  4.8014087669033367e-01  4.9603792356961912e-01  5.1205091934150027e-01  5.2817086855925011e-01  5.4446434702589264e-01  5.6087315881484101e-01  5.7734206785986