<?xml version="1.0"?>
<VTKFile type="UnstructuredGrid"  version="0.1"  >
<UnstructuredGrid>
<Piece  NumberOfPoints="7146" NumberOfCells="21889">
<Points>
<DataArray  type="Float64"  NumberOfComponents="3"  format="ascii">0 0 0  1 0 0  1 0.1 0  0.55 0.1 0  0.55 0.9 0  1 0.9 0  1 1 0  0 1 0  0 0.9 0  0.45 0.9 0  0.45 0.1 0  0 0.1 0  0 0 10  1 0 10  1 0.1 10  0.55 0.1 10  0.55 0.9 10  1 0.9 10  1 1 10  0 1 10  0 0.9 10  0.45 0.9 10  0.45 0.1 10  0 0.1 10  0.09999999999981467 0 0  0.1999999999995579 0 0  0.2999999999992664 0 0  0.3999999999989749 0 0  0.4999999999986943 0 0  0.5999999999989468 0 0  0.69999999999921 0 0  0.7999999999994734 0 0  0.8999999999997368 0 0  0.9100000000002904 0.1 0  0.8200000000005419 0.1 0  0.7300000000004594 0.1 0  0.6400000000001429 0.1 0  0.55 0.1999999999998373 0  0.55 0.2999999999995446 0  0.55 0.3999999999992517 0  0.55 0.4999999999989587 0  0.55 0.5999999999992082 0  0.55 0.6999999999994794 0  0.55 0.7999999999997506 0  0.6399999999997097 0.9 0  0.7299999999994582 0.9 0  0.8199999999995407 0.9 0  0.9099999999998571 0.9 0  0.8999999999995836 1 0  0.7999999999999998 1 0  0.7000000000006934 1 0  0.6000000000013869 1 0  0.5000000000020587 1 0  0.4000000000016644 1 0  0.3000000000012483 1 0  0.2000000000008322 1 0  0.100000000000416 1 0  0.08999999999980426 0.9 0  0.1799999999995429 0.9 0  0.2699999999995232 0.9 0  0.3599999999997603 0.9 0  0.45 0.8000000000001194 0  0.45 0.7000000000004121 0  0.45 0.6000000000007266 0  0.45 0.5000000000010305 0  0.45 0.400000000000781 0  0.45 0.3000000000005206 0  0.45 0.2000000000002494 0  0.3600000000001345 0.1 0  0.2700000000004186 0.1 0  0.180000000000462 0.1 0  0.09000000000023223 0.1 0  0.09999999999981467 0 10  0.1999999999995579 0 10  0.2999999999992664 0 10  0.3999999999989749 0 10  0.4999999999986943 0 10  0.5999999999989468 0 10  0.69999999999921 0 10  0.7999999999994734 0 10  0.8999999999997368 0 10  0.9100000000002904 0.1 10  0.8200000000005419 0.1 10  0.7300000000004594 0.1 10  0.6400000000001429 0.1 10  0.55 0.1999999999998373 10  0.55 0.2999999999995446 10  0.55 0.3999999999992517 10  0.55 0.4999999999989587 10  0.55 0.5999999999992082 10  0.55 0.6999999999994794 10  0.55 0.7999999999997506 10  0.6399999999997097 0.9 10  0.7299999999994582 0.9 10  0.8199999999995407 0.9 10  0.9099999999998571 0.9 10  0.8999999999995836 1 10  0.7999999999999998 1 10  0.7000000000006934 1 10  0.6000000000013869 1 10  0.5000000000020587 1 10  0.4000000000016644 1 10  0.3000000000012483 1 10  0.2000000000008322 1 10  0.100000000000416 1 10  0.08999999999980426 0.9 10  0.1799999999995429 0.9 10  0.2699999999995232 0.9 10  0.3599999999997603 0.9 10  0.45 0.8000000000001194 10  0.45 0.7000000000004121 10  0.45 0.6000000000007266 10  0.45 0.5000000000010305 10  0.45 0.400000000000781 10  0.45 0.3000000000005206 10  0.45 0.2000000000002494 10  0.3600000000001345 0.1 10  0.2700000000004186 0.1 10  0.180000000000462 0.1 10  0.09000000000023223 0.1 10  0 0 0.09999999999992584  0 0 0.199999999999856  0 0 0.2999999999997771  0 0 0.3999999999996677  0 0 0.4999999999995511  0 0 0.5999999999994683  0 0 0.6999999999993983  0 0 0.7999999999993286  0 0 0.8999999999992587  0 0 0.9999999999991888  0 0 1.099999999999119  0 0 1.199999999999033  0 0 1.299999999998852  0 0 1.399999999998576  0 0 1.499999999998284  0 0 1.599999999997992  0 0 1.6999999999977  0 0 1.799999999997408  0 0 1.899999999997116  0 0 1.999999999996825  0 0 2.099999999996533  0 0 2.199999999996241  0 0 2.299999999995949  0 0 2.399999999995657  0 0 2.499999999995365  0 0 2.599999999995073  0 0 2.699999999994782  0 0 2.79999999999449  0 0 2.899999999994198  0 0 2.999999999993906  0 0 3.099999999993614  0 0 3.199999999993322  0 0 3.299999999993029  0 0 3.399999999992738  0 0 3.499999999992446  0 0 3.599999999992154  0 0 3.699999999991863  0 0 3.799999999991571  0 0 3.899999999991278  0 0 3.999999999991022  0 0 4.099999999991035  0 0 4.199999999991187  0 0 4.299999999991338  0 0 4.399999999991491  0 0 4.499999999991642  0 0 4.599999999991795  0 0 4.699999999991947  0 0 4.799999999992099  0 0 4.89999999999225  0 0 4.999999999992403  0 0 5.099999999992555  0 0 5.199999999992706  0 0 5.299999999992858  0 0 5.39999999999301  0 0 5.499999999993161  0 0 5.599999999993313  0 0 5.699999999993466  0 0 5.799999999993618  0 0 5.899999999993771  0 0 5.999999999993922  0 0 6.099999999994074  0 0 6.199999999994227  0 0 6.299999999994378  0 0 6.39999999999453  0 0 6.499999999994682  0 0 6.599999999994833  0 0 6.699999999994986  0 0 6.799999999995138  0 0 6.899999999995289  0 0 6.999999999995442  0 0 7.099999999995594  0 0 7.199999999995747  0 0 7.299999999995897  0 0 7.39999999999605  0 0 7.499999999996202  0 0 7.599999999996353  0 0 7.699999999996505  0 0 7.799999999996658  0 0 7.899999999996808  0 0 7.999999999996962  0 0 8.099999999997113  0 0 8.199999999997265  0 0 8.299999999997418  0 0 8.399999999997569  0 0 8.499999999997721  0 0 8.599999999997873  0 0 8.699999999998024  0 0 8.799999999998176  0 0 8.899999999998329  0 0 8.999999999998479  0 0 9.099999999998634  0 0 9.199999999998786  0 0 9.299999999998937  0 0 9.399999999999089  0 0 9.499999999999241  0 0 9.599999999999392  0 0 9.699999999999545  0 0 9.799999999999697  0 0 9.899999999999848  1 0 0.09999999999992584  1 0 0.199999999999856  1 0 0.2999999999997771  1 0 0.3999999999996677  1 0 0.4999999999995511  1 0 0.5999999999994683  1 0 0.6999999999993983  1 0 0.7999999999993286  1 0 0.8999999999992587  1 0 0.9999999999991888  1 0 1.099999999999119  1 0 1.199999999999033  1 0 1.299999999998852  1 0 1.399999999998576  1 0 1.499999999998284  1 0 1.599999999997992  1 0 1.6999999999977  1 0 1.799999999997408  1 0 1.899999999997116  1 0 1.999999999996825  1 0 2.099999999996533  1 0 2.199999999996241  1 0 2.299999999995949  1 0 2.399999999995657  1 0 2.499999999995365  1 0 2.599999999995073  1 0 2.699999999994782  1 0 2.79999999999449  1 0 2.899999999994198  1 0 2.999999999993906  1 0 3.099999999993614  1 0 3.199999999993322  1 0 3.299999999993029  1 0 3.399999999992738  1 0 3.499999999992446  1 0 3.599999999992154  1 0 3.699999999991863  1 0 3.799999999991571  1 0 3.899999999991278  1 0 3.999999999991022  1 0 4.099999999991035  1 0 4.199999999991187  1 0 4.299999999991338  1 0 4.399999999991491  1 0 4.499999999991642  1 0 4.599999999991795  1 0 4.699999999991947  1 0 4.799999999992099  1 0 4.89999999999225  1 0 4.999999999992403  1 0 5.099999999992555  1 0 5.199999999992706  1 0 5.299999999992858  1 0 5.39999999999301  1 0 5.499999999993161  1 0 5.599999999993313  1 0 5.699999999993466  1 0 5.799999999993618  1 0 5.899999999993771  1 0 5.999999999993922  1 0 6.099999999994074  1 0 6.199999999994227  1 0 6.299999999994378  1 0 6.39999999999453  1 0 6.499999999994682  1 0 6.599999999994833  1 0 6.699999999994986  1 0 6.799999999995138  1 0 6.899999999995289  1 0 6.999999999995442  1 0 7.099999999995594  1 0 7.199999999995747  1 0 7.299999999995897  1 0 7.39999999999605  1 0 7.499999999996202  1 0 7.599999999996353  1 0 7.699999999996505  1 0 7.799999999996658  1 0 7.899999999996808  1 0 7.999999999996962  1 0 8.099999999997113  1 0 8.199999999997265  1 0 8.299999999997418  1 0 8.399999999997569  1 0 8.499999999997721  1 0 8.599999999997873  1 0 8.699999999998024  1 0 8.799999999998176  1 0 8.899999999998329  1 0 8.999999999998479  1 0 9.099999999998634  1 0 9.199999999998786  1 0 9.299999999998937  1 0 9.399999999999089  1 0 9.499999999999241  1 0 9.599999999999392  1 0 9.699999999999545  1 0 9.799999999999697  1 0 9.899999999999848  1 0.1 0.09999999999992584  1 0.1 0.199999999999856  1 0.1 0.2999999999997771  1 0.1 0.3999999999996677  1 0.1 0.4999999999995511  1 0.1 0.5999999999994683  1 0.1 0.6999999999993983  1 0.1 0.7999999999993286  1 0.1 0.8999999999992587  1 0.1 0.9999999999991888  1 0.1 1.099999999999119  1 0.1 1.199999999999033  1 0.1 1.299999999998852  1 0.1 1.399999999998576  1 0.1 1.499999999998284  1 0.1 1.599999999997992  1 0.1 1.6999999999977  1 0.1 1.799999999997408  1 0.1 1.899999999997116  1 0.1 1.999999999996825  1 0.1 2.099999999996533  1 0.1 2.199999999996241  1 0.1 2.299999999995949  1 0.1 2.399999999995657  1 0.1 2.499999999995365  1 0.1 2.599999999995073  1 0.1 2.699999999994782  1 0.1 2.79999999999449  1 0.1 2.899999999994198  1 0.1 2.999999999993906  1 0.1 3.099999999993614  1 0.1 3.199999999993322  1 0.1 3.299999999993029  1 0.1 3.399999999992738  1 0.1 3.499999999992446  1 0.1 3.599999999992154  1 0.1 3.699999999991863  1 0.1 3.799999999991571  1 0.1 3.899999999991278  1 0.1 3.999999999991022  1 0.1 4.099999999991035  1 0.1 4.199999999991187  1 0.1 4.299999999991338  1 0.1 4.399999999991491  1 0.1 4.499999999991642  1 0.1 4.599999999991795  1 0.1 4.699999999991947  1 0.1 4.799999999992099  1 0.1 4.89999999999225  1 0.1 4.999999999992403  1 0.1 5.099999999992555  1 0.1 5.199999999992706  1 0.1 5.299999999992858  1 0.1 5.39999999999301  1 0.1 5.499999999993161  1 0.1 5.599999999993313  1 0.1 5.699999999993466  1 0.1 5.799999999993618  1 0.1 5.899999999993771  1 0.1 5.999999999993922  1 0.1 6.099999999994074  1 0.1 6.199999999994227  1 0.1 6.299999999994378  1 0.1 6.39999999999453  1 0.1 6.499999999994682  1 0.1 6.599999999994833  1 0.1 6.699999999994986  1 0.1 6.799999999995138  1 0.1 6.899999999995289  1 0.1 6.999999999995442  1 0.1 7.099999999995594  1 0.1 7.199999999995747  1 0.1 7.299999999995897  1 0.1 7.39999999999605  1 0.1 7.499999999996202  1 0.1 7.599999999996353  1 0.1 7.699999999996505  1 0.1 7.799999999996658  1 0.1 7.899999999996808  1 0.1 7.999999999996962  1 0.1 8.099999999997113  1 0.1 8.199999999997265  1 0.1 8.299999999997418  1 0.1 8.399999999997569  1 0.1 8.499999999997721  1 0.1 8.599999999997873  1 0.1 8.699999999998024  1 0.1 8.799999999998176  1 0.1 8.899999999998329  1 0.1 8.999999999998479  1 0.1 9.099999999998634  1 0.1 9.199999999998786  1 0.1 9.299999999998937  1 0.1 9.399999999999089  1 0.1 9.499999999999241  1 0.1 9.599999999999392  1 0.1 9.699999999999545  1 0.1 9.799999999999697  1 0.1 9.899999999999848  0.55 0.1 
[...]
<PointData  Scalars="f_32"> 
<DataArray  type="Float64"  Name="f_32"  format="ascii">-9.6437807696025893e-07  1.6342627454631252e-07  7.2118075415693386e-06  5.4748039580713873e-07  1.0287958001133165e-06  8.3990049119431704e-06  -7.5270519015216893e-07  -1.4857362166440795e-06  5.9545167204593663e-06  1.5106353381610983e-06  1.0622166169550812e-06  8.4055908409414562e-06  1.9176104602057056e+00  1.9181877058555747e+00  1.9167878642809437e+00  1.9158273398094394e+00  1.9158310072228653e+00  1.9167647295535009e+00  1.9181605192261040e+00  1.9175432073911620e+00  1.9161434388037835e+00  1.9157645320063121e+00  1.9157689634094714e+00  1.9162087194530899e+00  -4.0319791485729132e-07  3.1709498945609611e-06  3.2650532761081405e-06  -2.6332576300423384e-07  7.6615296947503337e-07  7.9697526572790730e-07  8.8169307529844829e-07  2.6520262838299334e-06  -2.1019710934920372e-06  2.7046648326766642e-06  5.6777897423637044e-06  3.2291220464791270e-06  2.5654652207912841e-06  1.9096904534208751e-06  4.3741991858347445e-06  6.7774123371160840e-06  3.8717584695650700e-06  -2.1885112528657952e-06  6.0066401924173445e-06  1.5285186850221844e-06  3.1038571407574054e-06  4.4687187863710159e-06  5.9670620735487426e-06  6.2535477772596634e-06  -4.8309860963600751e-07  3.8657140977525370e-06  4.7321072095240578e-06  3.7306578511437057e-07  1.7137841075044520e-06  9.5765212998399865e-07  2.2878403779695852e-06  5.5743331044591496e-07  -7.1804570245480293e-07  3.1023670508618038e-06  2.3920090170386138e-06  2.3882068552570739e-06  3.1715406606599523e-06  1.9038176327280220e-06  3.1463859344495103e-06  1.3803806007501424e-06  2.2929188329705208e-06  3.1841145595337969e-06  3.6666633787980841e-06  5.0953208875447297e-06  2.1186304453423141e-06  5.5728038165578403e-06  5.3295942699418270e-06  5.5216629672553822e-06  1.9174731697875411e+00  1.9173638443768402e+00  1.9172565868517446e+00  1.9171840449730140e+00  1.9171794557615762e+00  1.9173000756346412e+00  1.9174924805520484e+00  1.9177184144287203e+00  1.9179350468252860e+00  1.9165690822491737e+00  1.9163526489320544e+00  1.9161584151248476e+00  1.9159680181960983e+00  1.9147247252913762e+00  1.9139267978574133e+00  1.9134763083084934e+00  1.9133011047019646e+00  1.9134475957522361e+00  1.9139423371705848e+00  1.9147205774166685e+00  1.9159764258851177e+00  1.9161511312225279e+00  1.9163551883198753e+00  1.9165488195884988e+00  1.9179133558915542e+00  1.9176984868251794e+00  1.9174882699272273e+00  1.9173048308463030e+00  1.9171852235086682e+00  1.9171851760555845e+00  1.9172302212085703e+00  1.9173126022364215e+00  1.9174158839719722e+00  1.9160393443416186e+00  1.9159427715635102e+00  1.9158648190999015e+00  1.9157934655777082e+00  1.9146650777509888e+00  1.9138679366060236e+00  1.9134101487518558e+00  1.9132406631667966e+00  1.9133964279774514e+00  1.9138815350760854e+00  1.9146617748071173e+00  1.9158007190131343e+00  1.9158892459169117e+00  1.9159882653450273e+00  1.9161105747568956e+00  4.6119529863574305e-03  8.4426457920469770e-03  1.2752938439239083e-02  1.7601261116717240e-02  2.2982380034661038e-02  2.8973369268776018e-02  3.5581389351703421e-02  4.2751198639052371e-02  5.0405886544736489e-02  5.8628572356404444e-02  6.7491272988584275e-02  7.6707555258097707e-02  8.6447106093132248e-02  9.6612996118317265e-02  1.0736086753458272e-01  1.1849090792211608e-01  1.3035905911060211e-01  1.4259688675733995e-01  1.5529648013854916e-01  1.6841818601588623e-01  1.8188056335597649e-01  1.9593114823349941e-01  2.1015223152317908e-01  2.2497243755124957e-01  2.4006745285394668e-01  2.5555035242618629e-01  2.7151778283597816e-01  2.8779332238441757e-01  3.0452730282622370e-01  3.2144890618485678e-01  3.3866432728189688e-01  3.5637663105012407e-01  3.7418274483205904e-01  3.9233046629358947e-01  4.1090392392724878e-01  4.2976297702318966e-01  4.4881601825238443e-01  4.6825036975746487e-01  4.8795443135164202e-01  5.0795411342477592e-01  5.2809146023313802e-01  5.4856761710275104e-01  5.6932008131806722e-01  5.9019716878866169e-01  6.1126548021874061e-01  6.3247865024949490e-01  6.5392980423016855e-01  6.7557143120823238e-01  6.9734488972687325e-01  7.1933185153420021e-01  7.4142396612547867e-01  7.6376561729997594e-01  7.8630727481127327e-01  8.0888292063122991e-01  8.3173612884141601e-01  8.5465474018835963e-01  8.7763962799147610e-01  9.0078623355577669e-01  9.2403088563911306e-01  9.4736275244354251e-01  9.7085654898740303e-01  9.9442898937583923e-01  1.0180745550753638e+00  1.0418114911725562e+00  1.0656324468258900e+00  1.0894818177244479e+00  1.1134011651114371e+00  1.1374368859110693e+00  1.1614606761921171e+00  1.1855675950252895e+00  1.2097703703935834e+00  1.2339770908650780e+00  1.2582582613367241e+00  1.2825686734653021e+00  1.3069106600366160e+00  1.3312717127481479e+00  1.3556665131033345e+00  1.3800670391076981e+00  1.4044844414647648e+00  1.4289241693746670e+00  1.4533832813896819e+00  1.4778437947633742e+00  1.5023313293527500e+00  1.5267907316786629e+00  1.5512657280273139e+00  1.5757653085270995e+00  1.6002197139036967e+00  1.6247059957358851e+00  1.6491751531736032e+00  1.6736244566857117e+00  1.6980690711944151e+00  1.7225029238280669e+00  1.7469416321732623e+00  1.7713285128561072e+00  1.7957297481383174e+00  1.8201080345111245e+00  1.8444900608713242e+00  1.8688753998898360e+00  1.8932335121807446e+00  4.5361462709503078e-03  8.4411130031853913e-03  1.2796073350758970e-02  1.7608855149544373e-02  2.3051112255724749e-02  2.8997207409880658e-02  3.5437412607324165e-02  4.2676953808097294e-02  5.0500289407265579e-02  5.8722224289204802e-02  6.7646890506073434e-02  7.6923506595921481e-02  8.6775372392479941e-02  9.6905453467993591e-02  1.0760042359233511e-01  1.1875844609796682e-01  1.3056892447728435e-01  1.4276175515339709e-01  1.5542435238072266e-01  1.6850241877023051e-01  1.8187364840359552e-01  1.9571843453271198e-01  2.0999974807191071e-01  2.2468505089124724e-01  2.3981949882880005e-01  2.5533416669388376e-01  2.7125437101791472e-01  2.8760597105901636e-01  3.0418920100546765e-01  3.2124000292964389e-01  3.3846548734266840e-01  3.5614690188133447e-01  3.7414051223299105e-01  3.9245310200601663e-01  4.1115362959495355e-01  4.3001252852504523e-01  4.4901172510716969e-01  4.6843593562032709e-01  4.8818026591675429e-01  5.0816505564380821e-01  5.2833978998040820e-01  5.4869867141913953e-01  5.6942148922260460e-01  5.9031454848647202e-01  6.1140079277034509e-01  6.3260992461136878e-01  6.5416911112514131e-01  6.7584143757164916e-01  6.9770178528697091e-01  7.1975074482878798e-01  7.4194904601321343e-01  7.6426365431693954e-01  7.8682589519559532e-01  8.0940706252134775e-01  8.3218390377267992e-01  8.5504536260786179e-01  8.7802707974393324e-01  9.0114608659871964e-01  9.2440043414806128e-01  9.4778749272998497e-01  9.7126664542909724e-01  9.9482162628985860e-01  1.0184941349949550e+00  1.0422213491750238e+00  1.0660568572021252e+00  1.0899029245162764e+00  1.1138763909396345e+00  1.1378724497282355e+00  1.1619540029692237e+00  1.1860649974002586e+00  1.2102598061560106e+00  1.2344727603567343e+00  1.2587626204055800e+00  1.2830617481735116e+00  1.3073972478317446e+00  1.3318022258250355e+00  1.3561998526729910e+00  1.3805819877143322e+00  1.4050136272497913e+00  1.4294601391956843e+00  1.4539037064585552e+00  1.4783512731372177e+00  1.5028447448299294e+00  1.5273103706155666e+00  1.5518151432424965e+00  1.5762855585224826e+00  1.6007920248385505e+00  1.6252435835258645e+00  1.6497278515707872e+00  1.6741906341554742e+00  1.6986234109922018e+00  1.7230628259021235e+00  1.7475096797140439e+00  1.7719026996783356e+00  1.7963260108109484e+00  1.8207031647728305e+00  1.8450817462394848e+00  1.8694369126923303e+00  1.8938027541795650e+00  3.1585201100984613e-03  6.0388005395043878e-03  9.3882560093804610e-03  1.3666832068006904e-02  1.8808957372443799e-02  2.4692690142457244e-02  3.1057725327874201e-02  3.8126936244522097e-02  4.5803367569660830e-02  5.4035648993165250e-02  6.2881414314650497e-02  7.2194281130834675e-02  8.1989495679858138e-02  9.2228124421333213e-02  1.0291464284642461e-01  1.1411966783533657e-01  1.2573691177997562e-01  1.3799506670576750e-01  1.5069429644501253e-01  1.6382593649959720e-01  1.7733981038726956e-01  1.9122420128871198e-01  2.0552920185639226e-01  2.2024435392286032e-01  2.3540328723547188e-01  2.5097078776931353e-01  2.6693884211362306e-01  2.8327156446609481e-01  3.0001006725849788e-01  3.1702606889142804e-01  3.3438219387997087e-01  3.5208563502618329e-01  3.7013305682761394e-01  3.8848840901130227e-01  4.0720186879281028e-01  4.2615210463629638e-01  4.4529536875573256e-01  4.6465095871054285e-01  4.8450480623984499e-01  5.0453923142248103e-01  5.2469561457633385e-01  5.4519453324793177e-01  5.6589679992751984e-01  5.8688266012398105e-01  6.0801717830206736e-01  6.2930110902565894e-01  6.5083725453964736e-01  6.7257996256046404e-01  6.9451121828132500e-01  7.1657892898930065e-01  7.3881141179259924e-01  7.6128960756569997e-01  7.8378673578545655e-01  8.0653652051536318e-01  8.2928198632011940e-01  8.5219805193449316e-01  8.7522361139705773e-01  8.9837411415957658e-01  9.2169649225266503e-01  9.4512248869961846e-01  9.6864341507457863e-01  9.9227509696181637e-01  1.0159432429538724e+00  1.0397615474046762e+00  1.0635867513078647e+00  1.0875428064790238e+00  1.1114942023176357e+00  1.1355582815297987e+00  1.1596790442597134e+00  1.1838420908121146e+00  1.2080317605517026e+00  1.2323061334433014e+00  1.2566065513068643e+00  1.2809583925820203e+00  1.3053571830499398e+00  1.3297641017540855e+00  1.3541810692768070e+00  1.3786511700983346e+00  1.4031095373675408e+00  1.4275455819006002e+00  1.4520380105517783e+00  1.4765380202042000e+00  1.5010348726150453e+00  1.5255500040584180e+00  1.5500624174465212e+00  1.5745861330268427e+00  1.5990895839395802e+00  1.6236009161697897e+00  1.6480864674481461e+00  1.6725678799097019e+00  1.6970518287819027e+00  1.7215178144019800e+00  1.7459630039368315e+00  1.7704071803097143e+00  1.7948209519537099e+00  1.8192183327825160e+00  1.8436264375311373e+00  1.8680185811848724e+00  1.8924011692472484e+00  2.8187515298741949e-03  6.3343640602114802e-03  1.0602820770082197e-02  1.5242587829885934e-02  2.0568482523884431e-02  2.6408064510095097e-02  3.2813057378308197e-02  3.9742740179255547e-02  4.7252780914825161e-02  5.5289924483500556e-02  6.3960786959436119e-02  7.3073682799897857e-02  8.2726778938794529e-02  9.2793331496532058e-02  1.0351249038615812e-01  1.1468110905080781e-01  1.2633798562639187e-01  1.3843813856921841e-01  1.5102139522269495e-01  1.6410897981297870e-01  1.7757072574018826e-01  1.9155490704484163e-01  2.0582156174018515e-01  2.2060813637283952e-01  2.3572659511261537e-01  2.5127524666945777e-01  2.6718370125971685e-01  2.8352661525921041e-01  3.0020362128981942e-01  3.1717400708709964e-01  3.3452122206585067e-01  3.5218661294645687e-01  3.7017871329002344e-01  3.8848870938596980e-01  4.0710377905525325e-01  4.2601290767724209e-01  4.4519646253395645e-01  4.6465782861117244e-01  4.8434433551326056e-01  5.0431932309928706e-01  5.2455756053370162e-01  5.4499482712515113e-01  5.6566706831950953e-01  5.8658389264487631e-01  6.0771025814631885e-01  6.2900485641193682e-01  6.5050399586461094e-01  6.7220829082689282e-01  6.9408911245912364e-01  7.1613206903072735e-01  7.3834240515260396e-01  7.6071234081535288e-01  7.8327036206585143e-01  8.0594532762747895e-01  8.2874676716207585e-01  8.5168449792019096e-01  8.7474886599780810e-01  8.9792899164798901e-01  9.2122792755463445e-01  9.4461394082056127e-01  9.6810892409164517e-01  9.9171407877336815e-01  1.0153973692374918e+00  1.0391609774244901e+00  1.0629773712161488e+00  1.0869262595428626e+00  1.1109124179162058e+00  1.1349501622815941e+00  1.1590646227150314e+00  1.1832240687584015e+00  1.2074124791170464e+00  1.2316683439729934e+00  1.2559666573339436e+00  1.2802787223983898e+00  1.3046598829218574e+00  1.3290407642357398e+00  1.3534437854816765e+00  1.3778788301494449e+00  1.4023411228385074e+00  1.4268080439831317e+00  1.4512839586968027e+00  1.4757841164145955e+00  1.5002712471937412e+00  1.5247716742623107e+00  1.5492700492236438e+00  1.5737692137888244e+00  1.5982644714937917e+00  1.6227581986728681e+00  1.6472462095592613e+00  1.6717280319279397e+00  1.6962005653699663e+00  1.7206553590783935e+00  1.7450986609126471e+00  1.7695249711377852e+00  1.7939453475849934e+00  1.8183484096851761e+00  1.8427360901551009e+00  1.8671134302280772e+00  1.8914759985340783e+00  2.9154568022032369e-03  6.4791238526558832e-03  1.0564615175810411e-02  1.5318550125309298e-02  2.0545703271982723e-02  2.6411273650929230e-02  3.2808009893599839e-02  3.9756663575024137e-02  4.7256375608408584e-02  5.5316412920595588e-02  6.3898263076419201e-02  7.3045796112428979e-02  8.2686625767512220e-02  9.2813465506144527e-02  1.0347896476051641e-01  1.1465724020585925e-01  1.2630560601473062e-01  1.3844615074123470e-01  1.5102348199596824e-01  1.6409700926436091e-01  1.7763374103033244e-01  1.9158495020640734e-01  2.0588195882536245e-01  2.2063536009207696e-01  2.3574993192272534e-01  2.5131794869411606e-01  2.6722402614445534e-01  2.8356646070494163e-01  3.0021857428956444e-01  3.1721216914096351e-01  3.3456042223953808e-01  3.5220882126280356e-01  3.7020995479368651e-01  3.8848568454149457e-01  4.0711147557485444e-01  4.2602141446723163e-01  4.4520994871920833e-01  4.6463701882588243e-01  4.8433197926671306e-01  5.0431281444040288e-01  5.2453996804666780e-01  5.4499246493742970e-01  5.6568227991874376e-01  5.8657730189926693e-01  6.0771786749803658e-01  6.2900372554867146e-01  6.5049960611428093e-01  6.7219838415022914e-01  6.9405710842909141e-01  7.1611935838958296e-01  7.3834451838883419e-01  7.6074200325430685e-01  7.8328686539864190e-01  8.0594739057544107e-01  8.2874432168296330e-01  8.5168325929418631e-01  8.7474983541629814e-01  8.9792466336901544e-01  9.2121271309930197e-01  9.4462384658446352e-01  9.6809832461002343e-01  9.9172761010566335e-01  1.0153885959716804e+00  1.0391644126591522e+00  1.0629870221720616e+00  1.0869285202993129e+00  1.1109016680611197e+00  1.1349625112113375e+00  1.1590602191044697e+00  1.1832160802489433e+00  1.2074176820109925e+00  1.2316730303485257e+00  1.2559618487553208e+00  1.2802931398977939e+00  1.3046440492193632e+00  1.3290368518930666e+00  1.3534473195957839e+00  1.3778865786569146e+00  1.4023398856836780e+00  1.4268001837437547e+00  1.4512879891042785e+00  1.4757811054582908e+00  1.5002707165602882e+00  1.5247716771132627e+00  1.5492766894073562e+00  1.5737788373701469e+00  1.5982750744110259e+00  1.6227573332141254e+00  1.6472550423736125e+00  1.6717337061811821e+00  1.6962016011228838e+00  1.7206559837681004e+00  1.7450985794802523e+00  1.7695275996709690e+00  1.7939388011692492e+00  1.8183460219687555e+00  1.8427418344770206e+00  1.8671180496493041e+00  1.8914805883235399e+00  3.3197593608545930e-03  6.0719628036720570e-03  9.4363560126340586e-03  1.3810295918619118e-02  1.8887289159724034e-02  2.4739677058390482e-02  3.1141920765079094e-02  3.8292338081047379e-02  4.5842499255401556e-02  5.3901205416112159e-02  6.2787351886044854e-02  7.1963443197533339e-02  8.1704549352784692e-02  9.1974443025470948e-02  1.0263219591465680e-01  1.1387118793592227e-01  1.2558700475571485e-01  1.3788648396685219e-01  1.5056033268721325e-01  1.6371890384097651e-01  1.7742527834085201e-01  1.9138348701070348e-01  2.0582776594546368e-01  2.2053092458411569e-01  2.3571485766025846e-01  2.5130007877586669e-01  2.6723636003268508e-01  2.8371882233721990e-01  3.0042585952953355e-01  3.1742517149788224e-01  3.3471540854649834e-01  3.5249603435047583e-01  3.7045866321956183e-01  3.8860587301826938e-01  4.0718536750441969e-01  4.2612499762314016e-01  4.4532025102695444e-01  4.6470200557620778e-01  4.8454244540654257e-01  5.0456996384773622e-01  5.2473073146769722e-01  5.4531434733176964e-01  5.6604829469740148e-01  5.8699068215512962e-01  6.0809184338628308e-01  6.2937049518237176e-01  6.5090454130154529e-01  6.7263483943880753e-01  6.9450311533541498e-01  7.1652893003973528e-01  7.3874224845498360e-01  7.6116657166003332e-01  7.8372031105500795e-01  8.0646361552974999e-01  8.2923753565873715e-01  8.5225636979424246e-01  8.7533305135411199e-01  8.9846704183725901e-01  9.2175420486307913e-01  9.4518192192242390e-01  9.6866554180480990e-01  9.9228371964020068e-01  1.0160239883316211e+00  1.0398115093001159e+00  1.0636531019163697e+00  1.0875599637229696e+00  1.1115305881969162e+00  1.1355498182429555e+00  1.1596656175859563e+00  1.1838275551803625e+00  1.2080194678347429e+00  1.2322979583535270e+00  1.2566038192493054e+00  1.2809597723015216e+00  1.3053223494466037e+00  1.3297406237849205e+00  1.3541663758203790e+00  1.3786388799201723e+00  1.4030992911335702e+00  1.4275771382857894e+00  1.4520571990879325e+00  1.4765651630010590e+00  1.5010557315604991e+00  1.5255640702417508e+00  1.5500929983457241e+00  1.5745832410999594e+00  1.5990934852935099e+00  1.6235851113473074e+00  1.6480777625438687e+00  1.6725780489805457e+00  1.6970503185506713e+00  1.7215161468911053e+00  1.7459548896493748e+00  1.7703929614057310e+00  1.7947957328545248e+00  1.8192159014646896e+00  1.8436111934151158e+00  1.8679903137218770e+00  1.8923760702580585e+00  4.6231712707058689e-03  8.4870795745786726e-03  1.2846822062589570e-02  1.7706373468371905e-02  2.3085500449917896e-02  2.9062221591650804e-02  3.5656521879189614e-02  4.2814606399074417e-02  5.0462062710009976e-02  5.8680877038350364e-02  6.7543444500227701e-02  7.6761024438689818e-02  8.6503445290970052e-02  9.6673018166743438e-02  1.0742467150620071e-01  1.1855877192888865e-01  1.3043084679578987e-01  1.4267241259812444e-01  1.5537520414715916e-01  1.6849939804797359e-01  1.8196418974255330e-01  1.9601664572767330e-01  2.1024065016533797e-01  2.2506645923759383e-01  2.4017001495758514e-01  2.5566430649029770e-01  2.7164521725655910e-01  2.8793425848271365e-01  3.0468125800215873e-01  3.2161742390429865e-01  3.3884551882528530e-01  3.5656856066752507e-01  3.7438412970984403e-01  3.9254125180629534e-01  4.1112403162818340e-01  4.2999141880241792e-01  4.4905289555224659e-01  4.6849440684602600e-01  4.8820565642738051e-01  5.0821093988098021e-01  5.2835135174651526e-01  5.4882605346637081e-01  5.6956970827354003e-01  5.9043147032221899e-01  6.1146932249224573e-01  6.3268763466240274e-01  6.5418397527431071e-01  6.7586964847349595e-01  6.9769373219192476e-01  7.1967338793207281e-01  7.4179719301790237e-01  7.6415003226741196e-01  7.8674550639646801e-01  8.0933251378686744e-01  8.3218409672149329e-01  8.5509956500349926e-01  8.7807425841732023e-01  9.0122510311111781e-01  9.2446777456178597e-01  9.4779957392648484e-01  9.7129392512467683e-01  9.9486809237978069e-01  1.0185164138275635e+00  1.0422566343102218e+00  1.0660815055303829e+00  1.0899348614032318e+00  1.1138586795608678e+00  1.1378985862855688e+00  1.1619269382879629e+00  1.1860385582601540e+00  1.2102464238204869e+00  1.2344576828651714e+00  1.2587434590689524e+00  1.2830582415947080e+00  1.3074052816247972e+00  1.3317716693262205e+00  1.3561723829091326e+00  1.3805816162940228e+00  1.4050062561272272e+00  1.4294504217360786e+00  1.4539121539779993e+00  1.4783753283508116e+00  1.5028654496615279e+00  1.5273277785766020e+00  1.5518056977195052e+00  1.5763081730443937e+00  1.6007653848090373e+00  1.6252544004659137e+00  1.6497261693759386e+00  1.6741781975278633e+00  1.6986254626825759e+00  1.7230619517250656e+00  1.7475028935252632e+00  1.7718912426800921e+00  1.7963071997140585e+00  1.8206774785215594e+00  1.8450558892932716e+00  1.8694346716882888e+00  1.8937796256247093e+00  4.5013350273023110e-03  8.4239318732458515e-03  1.2776376946464014e-02  1.7575782256098512e-02  2.3008229019574427e-02  2.8948129474753451e-02  3.5385121564492146e-02  4.2624216464709631e-02  5.0448021159076824e-02  5.8669460062031532e-02  6.7593973178595848e-02  7.6868824222328228e-02  8.6718818271272771e-02  9.6846026536906646e-02  1.0753763758558639e-01  1.1869221153691725e-01  1.30499246