<?xml version="1.0"?>
<VTKFile type="UnstructuredGrid"  version="0.1"  >
<UnstructuredGrid>
<Piece  NumberOfPoints="7146" NumberOfCells="21889">
<Points>
<DataArray  type="Float64"  NumberOfComponents="3"  format="ascii">0 0 0  1 0 0  1 0.1 0  0.55 0.1 0  0.55 0.9 0  1 0.9 0  1 1 0  0 1 0  0 0.9 0  0.45 0.9 0  0.45 0.1 0  0 0.1 0  0 0 10  1 0 10  1 0.1 10  0.55 0.1 10  0.55 0.9 10  1 0.9 10  1 1 10  0 1 10  0 0.9 10  0.45 0.9 10  0.45 0.1 10  0 0.1 10  0.09999999999981467 0 0  0.1999999999995579 0 0  0.2999999999992664 0 0  0.3999999999989749 0 0  0.4999999999986943 0 0  0.5999999999989468 0 0  0.69999999999921 0 0  0.7999999999994734 0 0  0.8999999999997368 0 0  0.9100000000002904 0.1 0  0.8200000000005419 0.1 0  0.7300000000004594 0.1 0  0.6400000000001429 0.1 0  0.55 0.1999999999998373 0  0.55 0.2999999999995446 0  0.55 0.3999999999992517 0  0.55 0.4999999999989587 0  0.55 0.5999999999992082 0  0.55 0.6999999999994794 0  0.55 0.7999999999997506 0  0.6399999999997097 0.9 0  0.7299999999994582 0.9 0  0.8199999999995407 0.9 0  0.9099999999998571 0.9 0  0.8999999999995836 1 0  0.7999999999999998 1 0  0.7000000000006934 1 0  0.6000000000013869 1 0  0.5000000000020587 1 0  0.4000000000016644 1 0  0.3000000000012483 1 0  0.2000000000008322 1 0  0.100000000000416 1 0  0.08999999999980426 0.9 0  0.1799999999995429 0.9 0  0.2699999999995232 0.9 0  0.3599999999997603 0.9 0  0.45 0.8000000000001194 0  0.45 0.7000000000004121 0  0.45 0.6000000000007266 0  0.45 0.5000000000010305 0  0.45 0.400000000000781 0  0.45 0.3000000000005206 0  0.45 0.2000000000002494 0  0.3600000000001345 0.1 0  0.2700000000004186 0.1 0  0.180000000000462 0.1 0  0.09000000000023223 0.1 0  0.09999999999981467 0 10  0.1999999999995579 0 10  0.2999999999992664 0 10  0.3999999999989749 0 10  0.4999999999986943 0 10  0.5999999999989468 0 10  0.69999999999921 0 10  0.7999999999994734 0 10  0.8999999999997368 0 10  0.9100000000002904 0.1 10  0.8200000000005419 0.1 10  0.7300000000004594 0.1 10  0.6400000000001429 0.1 10  0.55 0.1999999999998373 10  0.55 0.2999999999995446 10  0.55 0.3999999999992517 10  0.55 0.4999999999989587 10  0.55 0.5999999999992082 10  0.55 0.6999999999994794 10  0.55 0.7999999999997506 10  0.6399999999997097 0.9 10  0.7299999999994582 0.9 10  0.8199999999995407 0.9 10  0.9099999999998571 0.9 10  0.8999999999995836 1 10  0.7999999999999998 1 10  0.7000000000006934 1 10  0.6000000000013869 1 10  0.5000000000020587 1 10  0.4000000000016644 1 10  0.3000000000012483 1 10  0.2000000000008322 1 10  0.100000000000416 1 10  0.08999999999980426 0.9 10  0.1799999999995429 0.9 10  0.2699999999995232 0.9 10  0.3599999999997603 0.9 10  0.45 0.8000000000001194 10  0.45 0.7000000000004121 10  0.45 0.6000000000007266 10  0.45 0.5000000000010305 10  0.45 0.400000000000781 10  0.45 0.3000000000005206 10  0.45 0.2000000000002494 10  0.3600000000001345 0.1 10  0.2700000000004186 0.1 10  0.180000000000462 0.1 10  0.09000000000023223 0.1 10  0 0 0.09999999999992584  0 0 0.199999999999856  0 0 0.2999999999997771  0 0 0.3999999999996677  0 0 0.4999999999995511  0 0 0.5999999999994683  0 0 0.6999999999993983  0 0 0.7999999999993286  0 0 0.8999999999992587  0 0 0.9999999999991888  0 0 1.099999999999119  0 0 1.199999999999033  0 0 1.299999999998852  0 0 1.399999999998576  0 0 1.499999999998284  0 0 1.599999999997992  0 0 1.6999999999977  0 0 1.799999999997408  0 0 1.899999999997116  0 0 1.999999999996825  0 0 2.099999999996533  0 0 2.199999999996241  0 0 2.299999999995949  0 0 2.399999999995657  0 0 2.499999999995365  0 0 2.599999999995073  0 0 2.699999999994782  0 0 2.79999999999449  0 0 2.899999999994198  0 0 2.999999999993906  0 0 3.099999999993614  0 0 3.199999999993322  0 0 3.299999999993029  0 0 3.399999999992738  0 0 3.499999999992446  0 0 3.599999999992154  0 0 3.699999999991863  0 0 3.799999999991571  0 0 3.899999999991278  0 0 3.999999999991022  0 0 4.099999999991035  0 0 4.199999999991187  0 0 4.299999999991338  0 0 4.399999999991491  0 0 4.499999999991642  0 0 4.599999999991795  0 0 4.699999999991947  0 0 4.799999999992099  0 0 4.89999999999225  0 0 4.999999999992403  0 0 5.099999999992555  0 0 5.199999999992706  0 0 5.299999999992858  0 0 5.39999999999301  0 0 5.499999999993161  0 0 5.599999999993313  0 0 5.699999999993466  0 0 5.799999999993618  0 0 5.899999999993771  0 0 5.999999999993922  0 0 6.099999999994074  0 0 6.199999999994227  0 0 6.299999999994378  0 0 6.39999999999453  0 0 6.499999999994682  0 0 6.599999999994833  0 0 6.699999999994986  0 0 6.799999999995138  0 0 6.899999999995289  0 0 6.999999999995442  0 0 7.099999999995594  0 0 7.199999999995747  0 0 7.299999999995897  0 0 7.39999999999605  0 0 7.499999999996202  0 0 7.599999999996353  0 0 7.699999999996505  0 0 7.799999999996658  0 0 7.899999999996808  0 0 7.999999999996962  0 0 8.099999999997113  0 0 8.199999999997265  0 0 8.299999999997418  0 0 8.399999999997569  0 0 8.499999999997721  0 0 8.599999999997873  0 0 8.699999999998024  0 0 8.799999999998176  0 0 8.899999999998329  0 0 8.999999999998479  0 0 9.099999999998634  0 0 9.199999999998786  0 0 9.299999999998937  0 0 9.399999999999089  0 0 9.499999999999241  0 0 9.599999999999392  0 0 9.699999999999545  0 0 9.799999999999697  0 0 9.899999999999848  1 0 0.09999999999992584  1 0 0.199999999999856  1 0 0.2999999999997771  1 0 0.3999999999996677  1 0 0.4999999999995511  1 0 0.5999999999994683  1 0 0.6999999999993983  1 0 0.7999999999993286  1 0 0.8999999999992587  1 0 0.9999999999991888  1 0 1.099999999999119  1 0 1.199999999999033  1 0 1.299999999998852  1 0 1.399999999998576  1 0 1.499999999998284  1 0 1.599999999997992  1 0 1.6999999999977  1 0 1.799999999997408  1 0 1.899999999997116  1 0 1.999999999996825  1 0 2.099999999996533  1 0 2.199999999996241  1 0 2.299999999995949  1 0 2.399999999995657  1 0 2.499999999995365  1 0 2.599999999995073  1 0 2.699999999994782  1 0 2.79999999999449  1 0 2.899999999994198  1 0 2.999999999993906  1 0 3.099999999993614  1 0 3.199999999993322  1 0 3.299999999993029  1 0 3.399999999992738  1 0 3.499999999992446  1 0 3.599999999992154  1 0 3.699999999991863  1 0 3.799999999991571  1 0 3.899999999991278  1 0 3.999999999991022  1 0 4.099999999991035  1 0 4.199999999991187  1 0 4.299999999991338  1 0 4.399999999991491  1 0 4.499999999991642  1 0 4.599999999991795  1 0 4.699999999991947  1 0 4.799999999992099  1 0 4.89999999999225  1 0 4.999999999992403  1 0 5.099999999992555  1 0 5.199999999992706  1 0 5.299999999992858  1 0 5.39999999999301  1 0 5.499999999993161  1 0 5.599999999993313  1 0 5.699999999993466  1 0 5.799999999993618  1 0 5.899999999993771  1 0 5.999999999993922  1 0 6.099999999994074  1 0 6.199999999994227  1 0 6.299999999994378  1 0 6.39999999999453  1 0 6.499999999994682  1 0 6.599999999994833  1 0 6.699999999994986  1 0 6.799999999995138  1 0 6.899999999995289  1 0 6.999999999995442  1 0 7.099999999995594  1 0 7.199999999995747  1 0 7.299999999995897  1 0 7.39999999999605  1 0 7.499999999996202  1 0 7.599999999996353  1 0 7.699999999996505  1 0 7.799999999996658  1 0 7.899999999996808  1 0 7.999999999996962  1 0 8.099999999997113  1 0 8.199999999997265  1 0 8.299999999997418  1 0 8.399999999997569  1 0 8.499999999997721  1 0 8.599999999997873  1 0 8.699999999998024  1 0 8.799999999998176  1 0 8.899999999998329  1 0 8.999999999998479  1 0 9.099999999998634  1 0 9.199999999998786  1 0 9.299999999998937  1 0 9.399999999999089  1 0 9.499999999999241  1 0 9.599999999999392  1 0 9.699999999999545  1 0 9.799999999999697  1 0 9.899999999999848  1 0.1 0.09999999999992584  1 0.1 0.199999999999856  1 0.1 0.2999999999997771  1 0.1 0.3999999999996677  1 0.1 0.4999999999995511  1 0.1 0.5999999999994683  1 0.1 0.6999999999993983  1 0.1 0.7999999999993286  1 0.1 0.8999999999992587  1 0.1 0.9999999999991888  1 0.1 1.099999999999119  1 0.1 1.199999999999033  1 0.1 1.299999999998852  1 0.1 1.399999999998576  1 0.1 1.499999999998284  1 0.1 1.599999999997992  1 0.1 1.6999999999977  1 0.1 1.799999999997408  1 0.1 1.899999999997116  1 0.1 1.999999999996825  1 0.1 2.099999999996533  1 0.1 2.199999999996241  1 0.1 2.299999999995949  1 0.1 2.399999999995657  1 0.1 2.499999999995365  1 0.1 2.599999999995073  1 0.1 2.699999999994782  1 0.1 2.79999999999449  1 0.1 2.899999999994198  1 0.1 2.999999999993906  1 0.1 3.099999999993614  1 0.1 3.199999999993322  1 0.1 3.299999999993029  1 0.1 3.399999999992738  1 0.1 3.499999999992446  1 0.1 3.599999999992154  1 0.1 3.699999999991863  1 0.1 3.799999999991571  1 0.1 3.899999999991278  1 0.1 3.999999999991022  1 0.1 4.099999999991035  1 0.1 4.199999999991187  1 0.1 4.299999999991338  1 0.1 4.399999999991491  1 0.1 4.499999999991642  1 0.1 4.599999999991795  1 0.1 4.699999999991947  1 0.1 4.799999999992099  1 0.1 4.89999999999225  1 0.1 4.999999999992403  1 0.1 5.099999999992555  1 0.1 5.199999999992706  1 0.1 5.299999999992858  1 0.1 5.39999999999301  1 0.1 5.499999999993161  1 0.1 5.599999999993313  1 0.1 5.699999999993466  1 0.1 5.799999999993618  1 0.1 5.899999999993771  1 0.1 5.999999999993922  1 0.1 6.099999999994074  1 0.1 6.199999999994227  1 0.1 6.299999999994378  1 0.1 6.39999999999453  1 0.1 6.499999999994682  1 0.1 6.599999999994833  1 0.1 6.699999999994986  1 0.1 6.799999999995138  1 0.1 6.899999999995289  1 0.1 6.999999999995442  1 0.1 7.099999999995594  1 0.1 7.199999999995747  1 0.1 7.299999999995897  1 0.1 7.39999999999605  1 0.1 7.499999999996202  1 0.1 7.599999999996353  1 0.1 7.699999999996505  1 0.1 7.799999999996658  1 0.1 7.899999999996808  1 0.1 7.999999999996962  1 0.1 8.099999999997113  1 0.1 8.199999999997265  1 0.1 8.299999999997418  1 0.1 8.399999999997569  1 0.1 8.499999999997721  1 0.1 8.599999999997873  1 0.1 8.699999999998024  1 0.1 8.799999999998176  1 0.1 8.899999999998329  1 0.1 8.999999999998479  1 0.1 9.099999999998634  1 0.1 9.199999999998786  1 0.1 9.299999999998937  1 0.1 9.399999999999089  1 0.1 9.499999999999241  1 0.1 9.599999999999392  1 0.1 9.699999999999545  1 0.1 9.799999999999697  1 0.1 9.899999999999848  0.55 0.1 
[...]
<PointData  Scalars="f_32"> 
<DataArray  type="Float64"  Name="f_32"  format="ascii">-1.4014235387004131e-06  1.1319904197867615e-06  2.1568376825649976e-05  1.1252694148580531e-06  2.2111014496998859e-06  2.3491051899943994e-05  -6.3563233859788222e-07  -3.6353471090699076e-06  1.7711329763621209e-05  4.3725880745806106e-06  2.4604854086876489e-06  2.3708988879080500e-05  3.7479565299024946e+00  3.7488080604560654e+00  3.7460689363488298e+00  3.7439359253276279e+00  3.7439470527125049e+00  3.7460164852781257e+00  3.7487475780258226e+00  3.7477906648651809e+00  3.7450520465751422e+00  3.7438451013499461e+00  3.7438534333460014e+00  3.7452141765565305e+00  -3.4940133892826203e-06  4.8003122932533196e-06  7.4313594321030889e-06  -1.3780242285077880e-06  1.8581994797069957e-06  2.0339746697284782e-06  -3.3294438032649597e-07  7.1704711764307356e-06  -5.1591036798324366e-06  7.5570643590097519e-06  1.7217289248384926e-05  1.0636933461522805e-05  8.8274822998979515e-06  7.0650421229786850e-06  1.2667893666467699e-05  1.3018826523045096e-05  7.3650794188602497e-06  -3.5026554886816750e-06  1.5451265329752044e-05  7.1017780442209163e-06  1.4350046374735051e-05  1.1583399892549945e-05  1.7979227655480403e-05  1.3287427999877181e-05  -3.8703130245988318e-06  6.4537342816369331e-06  1.1262733247944438e-05  -6.8809120274013261e-07  3.1782457107729471e-06  3.1294376627475155e-07  3.6101142233093724e-06  4.2248707183259703e-06  -1.4523247272343266e-07  9.2037585413394799e-06  3.2669634258491370e-06  4.9370627687665303e-06  6.3230943867914196e-06  6.6449312712483883e-06  6.9617516588856726e-06  4.6614962384545046e-06  4.5443860709969160e-06  7.1329849671561593e-06  7.5874130934476285e-06  1.6673344236753693e-05  5.3015036877906463e-06  1.3859016577884779e-05  1.5898207642898162e-05  1.1249866962086839e-05  3.7475622557055805e+00  3.7472259705994846e+00  3.7468993781214470e+00  3.7466616555070109e+00  3.7465950879248657e+00  3.7468311702079666e+00  3.7472490575769122e+00  3.7477502530375273e+00  3.7482390035723121e+00  3.7455763802367570e+00  3.7450888893936600e+00  3.7446564119986334e+00  3.7442361509018460e+00  3.7417765647572003e+00  3.7402119547327648e+00  3.7393275467094895e+00  3.7389848626293518e+00  3.7392727394868617e+00  3.7402433156072963e+00  3.7417710674211393e+00  3.7442625775177665e+00  3.7446424581689288e+00  3.7450943527441467e+00  3.7455321750611095e+00  3.7481935003094153e+00  3.7477088477269858e+00  3.7472447611460615e+00  3.7468484148785728e+00  3.7466111459595774e+00  3.7466618920547625e+00  3.7468339018487344e+00  3.7470997228990943e+00  3.7474188273904527e+00  3.7447400649863360e+00  3.7444444992878934e+00  3.7441933885908698e+00  3.7439686776155936e+00  3.7416897685551191e+00  3.7401266335644299e+00  3.7392278947961328e+00  3.7388961419876336e+00  3.7392017023399129e+00  3.7401536877617936e+00  3.7416853631907920e+00  3.7439875604071187e+00  3.7442592120598119e+00  3.7445598632099686e+00  3.7449110933869130e+00  9.4219826329987356e-03  1.6848215990883236e-02  2.5140072680119516e-02  3.4476799848314976e-02  4.4874402270516520e-02  5.6509713056471664e-02  6.9372998828081373e-02  8.3378517229123039e-02  9.8326197207458318e-02  1.1440004100513859e-01  1.3171206031900229e-01  1.4970209368236789e-01  1.6871538969380970e-01  1.8857974998747534e-01  2.0958478529775049e-01  2.3132621243346271e-01  2.5453229123877408e-01  2.7844923088145596e-01  3.0326796120403793e-01  3.2890541698867937e-01  3.5520718238653654e-01  3.8265989756738117e-01  4.1044303065511484e-01  4.3940516597124668e-01  4.6888668141447343e-01  4.9911331407194787e-01  5.3030756402920753e-01  5.6209907834855655e-01  5.9477699406578710e-01  6.2783168798258659e-01  6.6145270074283258e-01  6.9605313413280379e-01  7.3082038045826014e-01  7.6627250152052695e-01  8.0256294897066449e-01  8.3940872727924787e-01  8.7663288355591606e-01  9.1460478987874139e-01  9.5311453815753211e-01  9.9219926258965463e-01  1.0315510015662455e+00  1.0715595663553517e+00  1.1121115040777985e+00  1.1528927360017212e+00  1.1940491580705770e+00  1.2354902180658096e+00  1.2773967475421970e+00  1.3196806727407611e+00  1.3622267189715771e+00  1.4051784983206776e+00  1.4483340121123982e+00  1.4919895084770689e+00  1.5360398038490839e+00  1.5801455467194399e+00  1.6248071450688022e+00  1.6695966973782590e+00  1.7145134332635015e+00  1.7597506012973545e+00  1.8051836382330293e+00  1.8507887619972265e+00  1.8967089846669281e+00  1.9427830504183330e+00  1.9890038969715897e+00  2.0354015554448162e+00  2.0819638506961802e+00  2.1285796411774394e+00  2.1753304560290463e+00  2.2223143914766674e+00  2.2692759487453231e+00  2.3164026575215688e+00  2.3637239341144110e+00  2.4110490864941925e+00  2.4585239896812032e+00  2.5060562760301557e+00  2.5536522013735361e+00  2.6012868220743934e+00  2.6489862617476247e+00  2.6966961703167174e+00  2.7444389353325702e+00  2.7922256905396292e+00  2.8400490657271926e+00  2.8878783072597787e+00  2.9357609190059732e+00  2.9835883329357258e+00  3.0314470589996820e+00  3.0793557166816172e+00  3.1271737720896877e+00  3.1750581812724747e+00  3.2229108587714341e+00  3.2707247972255642e+00  3.3185310842096496e+00  3.3663181704745044e+00  3.4141136638354381e+00  3.4618085591389995e+00  3.5095305028152950e+00  3.5572116980031776e+00  3.6049034266068118e+00  3.6526075929488986e+00  3.7002609369989288e+00  9.2277075598453679e-03  1.6792633096411158e-02  2.5159624483559573e-02  3.4360002104473437e-02  4.4833705814482809e-02  5.6349904223415237e-02  6.8852145777156287e-02  8.2969965903955001e-02  9.8238872526174817e-02  1.1429417326804606e-01  1.3174763500512168e-01  1.4989798299443438e-01  1.6919495418636143e-01  1.8902106192407428e-01  2.0994341992684282e-01  2.3176241095789879e-01  2.5486622248962965e-01  2.7869518242685587e-01  3.0344346293662755e-01  3.2898927077597817e-01  3.5509626125923066e-01  3.8212606024016182e-01  4.1000947481738026e-01  4.3868427650961711e-01  4.6823949913379881e-01  4.9854541546389702e-01  5.2964329678832323e-01  5.6158689998959810e-01  5.9398098515066500e-01  6.2728681237685091e-01  6.6091999727493256e-01  6.9545369025694004e-01  7.3060748113224816e-01  7.6638884970402898e-01  8.0292828715952447e-01  8.3976872702426897e-01  8.7685840075550381e-01  9.1479156359399760e-01  9.5336071594631722e-01  9.9239373528850905e-01  1.0318015472581776e+00  1.0715679990507752e+00  1.1120589536729801e+00  1.1528736890412956e+00  1.1940674120121628e+00  1.2355031793799298e+00  1.2776331293428755e+00  1.3199815045029768e+00  1.3626986247577995e+00  1.4057817722727446e+00  1.4491577197349186e+00  1.4927566294235424e+00  1.5368422559414332e+00  1.5809623939897730e+00  1.6254706395048031e+00  1.6701410099427474e+00  1.7150467964276239e+00  1.7602201461859115e+00  1.8056668222146821e+00  1.8513759864485617e+00  1.8972619823538115e+00  1.9432968905554053e+00  1.9895615421388828e+00  2.0359365501916606e+00  2.0825241925080897e+00  2.1291328649903050e+00  2.1759950885965669e+00  2.2229016549222327e+00  2.2699819409104873e+00  2.3171167526727356e+00  2.3644186584142082e+00  2.4117564089061334e+00  2.4592477704328854e+00  2.5067545816548891e+00  2.5543367242548585e+00  2.6020545413362561e+00  2.6497583480689215e+00  2.6974274203187405e+00  2.7451948771200247e+00  2.7929915230989661e+00  2.8407829102926732e+00  2.8885874195293573e+00  2.9364837726992237e+00  2.9843265797800882e+00  3.0322482883194741e+00  3.0800994447221712e+00  3.1280212599054331e+00  3.1758324040274508e+00  3.2237120073352750e+00  3.2715507282907348e+00  3.3193312784261320e+00  3.3671273622113702e+00  3.4149389647736812e+00  3.4626453712353040e+00  3.5104121650527818e+00  3.5580916278875594e+00  3.6057783479625969e+00  3.6534242158516381e+00  3.7010940834541133e+00  6.5866559113318809e-03  1.2101041246262005e-02  1.8375068251502199e-02  2.6485874949044762e-02  3.6336392838487108e-02  4.7713876146866022e-02  6.0065856237366606e-02  7.3826877922998677e-02  8.8822605652738890e-02  1.0490914481410106e-01  1.2220198810609945e-01  1.4042464524967382e-01  1.5960471362828269e-01  1.7965178264698201e-01  2.0057677517454167e-01  2.2249600892545496e-01  2.4521114143193259e-01  2.6918533360740587e-01  2.9401113910646903e-01  3.1966867181323511e-01  3.4605639696139628e-01  3.7317053334310935e-01  4.0109949269626632e-01  4.2983021334628285e-01  4.5943848383105440e-01  4.8985096654203925e-01  5.2104662182325256e-01  5.5295613569191993e-01  5.8565739474843215e-01  6.1890015862993386e-01  6.5280240677948853e-01  6.8736929270651048e-01  7.2263292284459291e-01  7.5850217613573945e-01  7.9506981406078636e-01  8.3208778866914390e-01  8.6947470236208679e-01  9.0727096769905557e-01  9.4605404391425352e-01  9.8519122829460715e-01  1.0245636943018237e+00  1.0646075968509967e+00  1.1050571348512803e+00  1.1460639753051862e+00  1.1873519421998573e+00  1.2289360522624830e+00  1.2710206883992687e+00  1.3135096467445704e+00  1.3563713084459412e+00  1.3994928430032372e+00  1.4429351615560118e+00  1.4868667644867226e+00  1.5308218948559216e+00  1.5752809091828923e+00  1.6197253399807574e+00  1.6645068853965925e+00  1.7094991182530854e+00  1.7547374497002741e+00  1.8003215096178422e+00  1.8461076007574693e+00  1.8920783655581037e+00  1.9382670306504517e+00  1.9845237035529277e+00  2.0310802348841395e+00  2.0776479296045407e+00  2.1244764286657856e+00  2.1712948502942830e+00  2.2183390255037549e+00  2.2654957029344871e+00  2.3127361691986255e+00  2.3600282720074266e+00  2.4074878711860919e+00  2.4550006487386922e+00  2.5026153867462146e+00  2.5503232563110814e+00  2.5980456214085899e+00  2.6457872107823146e+00  2.6936334972513403e+00  2.7414529854774381e+00  2.7892289102928944e+00  2.8371185755995829e+00  2.8850274738807049e+00  2.9329315167045853e+00  2.9808724223913243e+00  3.0288086259890825e+00  3.0767670842036003e+00  3.1246823483366475e+00  3.1726131547993188e+00  3.2204947565955195e+00  3.2683703597991611e+00  3.3162538515303610e+00  3.3641022132860319e+00  3.4119102793352445e+00  3.4597184924903859e+00  3.5074665133789686e+00  3.5551849227538921e+00  3.6029309898372168e+00  3.6506504065281926e+00  3.6983539666013341e+00  5.2057084764929968e-03  1.2034380122651931e-02  2.0373319126028640e-02  2.9459211446809720e-02  3.9903131304532533e-02  5.1328660459102726e-02  6.3865564232408259e-02  7.7415825723527537e-02  9.2105349169503026e-02  1.0781812199696102e-01  1.2478250269611389e-01  1.4260005912237506e-01  1.6148327203591678e-01  1.8114469518858917e-01  2.0210015312817395e-01  2.2392590470103846e-01  2.4669837373496981e-01  2.7033646168070669e-01  2.9491416611796506e-01  3.2048993620562194e-01  3.4676740996554628e-01  3.7408997350897166e-01  4.0194052634282901e-01  4.3082484074112232e-01  4.6034461577222813e-01  4.9071178201727550e-01  5.2177778755523785e-01  5.5369737795267437e-01  5.8626979572556959e-01  6.1940923750009358e-01  6.5329363205477797e-01  6.8778828852195018e-01  7.2292370150453544e-01  7.5868433396439350e-01  7.9504188549961141e-01  8.3197288369873679e-01  8.6944084141542666e-01  9.0745377042885345e-01  9.4590005133030775e-01  9.8491468537709637e-01  1.0244478937783623e+00  1.0643649578744405e+00  1.1047439950921487e+00  1.1456048464542441e+00  1.1868764417842952e+00  1.2284682392446995e+00  1.2704685551417749e+00  1.3128767827871826e+00  1.3556249150229305e+00  1.3986894117273179e+00  1.4420791180302714e+00  1.4857821197202303e+00  1.5298594087424302e+00  1.5741610811480640e+00  1.6187139539211142e+00  1.6635345926139460e+00  1.7086078274387244e+00  1.7539043837929436e+00  1.7994374788380740e+00  1.8451400591722253e+00  1.8910532927986294e+00  1.9371874711821748e+00  1.9834773590957844e+00  2.0299220741623500e+00  2.0764684207066679e+00  2.1232834854679550e+00  2.1701660201059272e+00  2.2171546830896953e+00  2.2642935641432969e+00  2.3115220074250660e+00  2.3588021055341359e+00  2.4062222865194118e+00  2.4537248622422085e+00  2.5012544198466493e+00  2.5489217915504536e+00  2.5965877290167625e+00  2.6442957600555861e+00  2.6920736427578200e+00  2.7399025820316822e+00  2.7877422377950749e+00  2.8355968354895298e+00  2.8835044916851755e+00  2.9313824887776896e+00  2.9792801662228849e+00  3.0271957131636298e+00  3.0750925802470217e+00  3.1229899780769159e+00  3.1708878537735719e+00  3.2187695175013933e+00  3.2666422136732236e+00  3.3144967052175889e+00  3.3623138179165979e+00  3.4101087293528916e+00  3.4578721609009535e+00  3.5056238001840287e+00  3.5533411989652435e+00  3.6010264246068915e+00  3.6486919324577682e+00  3.6963295640912239e+00  5.3970242216424746e-03  1.2323035214256636e-02  2.0331324137738555e-02  2.9627078592673300e-02  3.9873678104856050e-02  5.1368315530740061e-02  6.3877725985147349e-02  7.7467643326490671e-02  9.2136779586072318e-02  1.0790408703044518e-01  1.2468139832329704e-01  1.4256739951291691e-01  1.6141406297916130e-01  1.8119762480920421e-01  2.0203556919391746e-01  2.2387892610709711e-01  2.4663177390578206e-01  2.7035814677299280e-01  2.9492165621617711e-01  3.2046100773692632e-01  3.4689630189034409e-01  3.7415616104942168e-01  4.0206565774874842e-01  4.3087827871309986e-01  4.6039866297816828e-01  4.9079979201905394e-01  5.2185492438461467e-01  5.5378035278983173e-01  5.8629823138716863e-01  6.1948459344047391e-01  6.5336551974465884e-01  6.8782413152679345e-01  7.2298540690248303e-01  7.5867445693644742e-01  7.9505143013580115e-01  8.3198813621053314e-01  8.6946986580628349e-01  9.0741071829871967e-01  9.4587305772335650e-01  9.8490436001422255e-01  1.0244123910575642e+00  1.0643621910892660e+00  1.1047756341984578e+00  1.1455910343663218e+00  1.1868891777246475e+00  1.2284658261421657e+00  1.2704593527674994e+00  1.3128570746583350e+00  1.3555579105192415e+00  1.3986611875230281e+00  1.4420815054730274e+00  1.4858453952137192e+00  1.5298957796183219e+00  1.5741700335953268e+00  1.6187121596215646e+00  1.6635372964234103e+00  1.7086140076505214e+00  1.7538961996745905e+00  1.7994055437099763e+00  1.8451618153574545e+00  1.8910350561388676e+00  1.9372189537372917e+00  1.9834621884258963e+00  2.0299300127946180e+00  2.0764904980077747e+00  2.1232888127236902e+00  2.1701453920141254e+00  2.2171797888260407e+00  2.2642848639668847e+00  2.3115058504624413e+00  2.3588153087111721e+00  2.4062319193637967e+00  2.4537148689203949e+00  2.5012837868607951e+00  2.5488909435344671e+00  2.5965798277148124e+00  2.6443057008137187e+00  2.6920895194231402e+00  2.7399010570845457e+00  2.7877271235089731e+00  2.8356050057305864e+00  2.8834980853965972e+00  2.9313818761202994e+00  2.9792877266062554e+00  3.0272050270168567e+00  3.0751159082982049e+00  3.1230149329400292e+00  3.1708872740550778e+00  3.2187897557953429e+00  3.2666549347088742e+00  3.3144998196564446e+00  3.3623158333688212e+00  3.4101106438487423e+00  3.4578791869125842e+00  3.5056120987174055e+00  3.5533363120329686e+00  3.6010411262025901e+00  3.6487045594089782e+00  3.6963408998349534e+00  6.8981965445724909e-03  1.2202469196260531e-02  1.8571668984179331e-02  2.6957466376477272e-02  3.6729488898963533e-02  4.8075444622324451e-02  6.0546820899276918e-02  7.4465702931308719e-02  8.9211082762437249e-02  1.0495576595808119e-01  1.2230629794444954e-01  1.4020633174528965e-01  1.5920863780752220e-01  1.7926442286128697e-01  2.0008580086993191e-01  2.2204135866497823e-01  2.4493196992093044e-01  2.6897575429551990e-01  2.9373237300046601e-01  3.1943485148369682e-01  3.4622254273298453e-01  3.7348688239698602e-01  4.0172104736259834e-01  4.3043593977087929e-01  4.6008141774063704e-01  4.9052181883953905e-01  5.2163896943063037e-01  5.5383254853232944e-01  5.8645308629380799e-01  6.1965917213791466e-01  6.5342873257695844e-01  6.8815274191021236e-01  7.2323841915331311e-01  7.5867751491020174e-01  7.9498044889803432e-01  8.3198809053888612e-01  8.6949309374475370e-01  9.0735855649271346e-01  9.4613071882761435e-01  9.8527201690267718e-01  1.0246630140238888e+00  1.0648881409874564e+00  1.1053954904213366e+00  1.1463076225375122e+00  1.1875320756004089e+00  1.2290978928051755e+00  1.2711733117476081e+00  1.3136373622374520e+00  1.3563662140303794e+00  1.3993977895187328e+00  1.4427961954921029e+00  1.4866131911691265e+00  1.5306868737224275e+00  1.5751266392462637e+00  1.6196244945545391e+00  1.6646126338921181e+00  1.7097096120998274e+00  1.7549201200517806e+00  1.8004350867197179e+00  1.8462294233422076e+00  1.8921267975669245e+00  1.9382887268206039e+00  1.9846969774025980e+00  2.0311969342340923e+00  2.0777973447547771e+00  2.1245262293650007e+00  2.1713796937061933e+00  2.2183287900837181e+00  2.2654721140570722e+00  2.3127080973129281e+00  2.3600044126828226e+00  2.4074732769720164e+00  2.4549972957843864e+00  2.5026208270588759e+00  2.5502562180638750e+00  2.5980030506573466e+00  2.6457649420483413e+00  2.6936200478374999e+00  2.7414485952202337e+00  2.7893091513805692e+00  2.8371721481542886e+00  2.8850930965328963e+00  2.9329797710211531e+00  2.9809028983605041e+00  3.0288669550924943e+00  3.0767547406676372e+00  3.1246834067826259e+00  3.1725759892420742e+00  3.2204746773180739e+00  3.2683906730352974e+00  3.3162494566556018e+00  3.3640983608481583e+00  3.4118935045700933e+00  3.4596881610276711e+00  3.5074138666643293e+00  3.5551792559947484e+00  3.6028999509694506e+00  3.6505915266496278e+00  3.6982993797331303e+00  9.4529120638500597e-03  1.6956491346871473e-02  2.5360938043003749e-02  3.4726630413739877e-02  4.5119225860436797e-02  5.6719706307278309e-02  6.9546032810228947e-02  8.3516809673270950e-02  9.8438908010277909e-02  1.1449374110789176e-01  1.3179491706320481e-01  1.4977730774259107e-01  1.6878751540122491e-01  1.8865084347327712e-01  2.0965530193755441e-01  2.3139750439911275e-01  2.5460411719439902e-01  2.7852161542182030e-01  3.0334001963873475e-01  3.2897590149258205e-01  3.5527541984934713e-01  3.8272545499067540e-01  4.1050754900253622e-01  4.3947309369254095e-01  4.6896408839909265e-01  4.9920650176348147e-01  5.3041933758157878e-01  5.6222942132950049e-01  5.9492655777712522e-01  6.2800423668832628e-01  6.6164619306309769e-01  6.9626432174817476e-01  7.3104674047121754e-01  7.6651387248421665e-01  8.0281911425178609e-01  8.3967769244038282e-01  8.7691450265464510e-01  9.1489665645860907e-01  9.5341593765093280e-01  9.9250700589732188e-01  1.0318599089394573e+00  1.0718609697364201e+00  1.1123908715171091e+00  1.1531385276211557e+00  1.1942308702750901e+00  1.2356839813926792e+00  1.2776815825884562e+00  1.3200509065514459e+00  1.3626963167112531e+00  1.4056304487998865e+00  1.4488481930828527e+00  1.4925202976845031e+00  1.5366802329938973e+00  1.5808057160125133e+00  1.6254599879458413e+00  1.6702397130936733e+00  1.7151320647969894e+00  1.7603751228083118e+00  1.8058012879710792e+00  1.8514032616947547e+00  1.8973216782808637e+00  1.9433966332452357e+00  1.9896206726943442e+00  2.0360226836035573e+00  2.0825906020597897e+00  2.1292124227254767e+00  2.1759702357216204e+00  2.2229609234429755e+00  2.2699299732264948e+00  2.3170645687634455e+00  2.3643946377478944e+00  2.4117275967450613e+00  2.4592106100588920e+00  2.5067505945988482e+00  2.5543556656040152e+00  2.6019999023727909e+00  2.6497106526510139e+00  2.6974383909394444e+00  2.7451953203498869e+00  2.7929889656088469e+00  2.8408150644909456e+00  2.8886469601833502e+00  2.9365324752493156e+00  2.9843632902144894e+00  3.0322258279891754e+00  3.0801384839073256e+00  3.1279605949502192e+00  3.1758491392161496e+00  3.2237058767126379e+00  3.2715240371810164e+00  3.3193343617492941e+00  3.3671254238770576e+00  3.4149242099656356e+00  3.4626213443469585e+00  3.5103724723905900e+00  3.5580392970718999e+00  3.6057258728205435e+00  3.6534171537078421e+00  3.7010448825932674e+00  9.1638891193799848e-03  1.6757078135734810e-02  2.5119859481443556e-02  3.4293512552476105e-02  4.4749986789411750e-02  5.6257047812280955e-02  6.8756769574956689e-02  8.2878670818226641e-02  9.8153879087977902e-02  1.1421367597312458e-01  1.3167278385554504e-01  1.4982636321905601e-01  1.6912645708845028e-01  1.8895405282453479e-01  2.0987741194435802e-01  2.3169710658673975e-01  2.548021