<?xml version="1.0"?>
<VTKFile type="UnstructuredGrid"  version="0.1"  >
<UnstructuredGrid>
<Piece  NumberOfPoints="21451" NumberOfCells="65821">
<Points>
<DataArray  type="Float64"  NumberOfComponents="3"  format="ascii">0 0 0  1 0 0  1 0.1 0  0.55 0.1 0  0.55 0.9 0  1 0.9 0  1 1 0  0 1 0  0 0.9 0  0.45 0.9 0  0.45 0.1 0  0 0.1 0  0 0 30  1 0 30  1 0.1 30  0.55 0.1 30  0.55 0.9 30  1 0.9 30  1 1 30  0 1 30  0 0.9 30  0.45 0.9 30  0.45 0.1 30  0 0.1 30  0.09999999999981467 0 0  0.1999999999995579 0 0  0.2999999999992664 0 0  0.3999999999989749 0 0  0.4999999999986943 0 0  0.5999999999989468 0 0  0.69999999999921 0 0  0.7999999999994734 0 0  0.8999999999997368 0 0  0.9100000000002904 0.1 0  0.8200000000005419 0.1 0  0.7300000000004594 0.1 0  0.6400000000001429 0.1 0  0.55 0.1999999999998373 0  0.55 0.2999999999995446 0  0.55 0.3999999999992517 0  0.55 0.4999999999989587 0  0.55 0.5999999999992082 0  0.55 0.6999999999994794 0  0.55 0.7999999999997506 0  0.6399999999997097 0.9 0  0.7299999999994582 0.9 0  0.8199999999995407 0.9 0  0.9099999999998571 0.9 0  0.8999999999995836 1 0  0.7999999999999998 1 0  0.7000000000006934 1 0  0.6000000000013869 1 0  0.5000000000020587 1 0  0.4000000000016644 1 0  0.3000000000012483 1 0  0.2000000000008322 1 0  0.100000000000416 1 0  0.08999999999980426 0.9 0  0.1799999999995429 0.9 0  0.2699999999995232 0.9 0  0.3599999999997603 0.9 0  0.45 0.8000000000001194 0  0.45 0.7000000000004121 0  0.45 0.6000000000007266 0  0.45 0.5000000000010305 0  0.45 0.400000000000781 0  0.45 0.3000000000005206 0  0.45 0.2000000000002494 0  0.3600000000001345 0.1 0  0.2700000000004186 0.1 0  0.180000000000462 0.1 0  0.09000000000023223 0.1 0  0.09999999999981467 0 30  0.1999999999995579 0 30  0.2999999999992664 0 30  0.3999999999989749 0 30  0.4999999999986943 0 30  0.5999999999989468 0 30  0.69999999999921 0 30  0.7999999999994734 0 30  0.8999999999997368 0 30  0.9100000000002904 0.1 30  0.8200000000005419 0.1 30  0.7300000000004594 0.1 30  0.6400000000001429 0.1 30  0.55 0.1999999999998373 30  0.55 0.2999999999995446 30  0.55 0.3999999999992517 30  0.55 0.4999999999989587 30  0.55 0.5999999999992082 30  0.55 0.6999999999994794 30  0.55 0.7999999999997506 30  0.6399999999997097 0.9 30  0.7299999999994582 0.9 30  0.8199999999995407 0.9 30  0.9099999999998571 0.9 30  0.8999999999995836 1 30  0.7999999999999998 1 30  0.7000000000006934 1 30  0.6000000000013869 1 30  0.5000000000020587 1 30  0.4000000000016644 1 30  0.3000000000012483 1 30  0.2000000000008322 1 30  0.100000000000416 1 30  0.08999999999980426 0.9 30  0.1799999999995429 0.9 30  0.2699999999995232 0.9 30  0.3599999999997603 0.9 30  0.45 0.8000000000001194 30  0.45 0.7000000000004121 30  0.45 0.6000000000007266 30  0.45 0.5000000000010305 30  0.45 0.400000000000781 30  0.45 0.3000000000005206 30  0.45 0.2000000000002494 30  0.3600000000001345 0.1 30  0.2700000000004186 0.1 30  0.180000000000462 0.1 30  0.09000000000023223 0.1 30  0 0 0.09999999999997286  0 0 0.1999999999999457  0 0 0.2999999999999222  0 0 0.3999999999999007  0 0 0.4999999999998805  0 0 0.5999999999998634  0 0 0.6999999999998465  0 0 0.7999999999998206  0 0 0.8999999999997943  0 0 0.9999999999997452  0 0 1.099999999999682  0 0 1.199999999999611  0 0 1.29999999999952  0 0 1.399999999999429  0 0 1.499999999999338  0 0 1.599999999999247  0 0 1.699999999999167  0 0 1.799999999999094  0 0 1.89999999999904  0 0 1.999999999999042  0 0 2.099999999999044  0 0 2.199999999999095  0 0 2.299999999999153  0 0 2.399999999999209  0 0 2.499999999999267  0 0 2.599999999999324  0 0 2.699999999999381  0 0 2.799999999999438  0 0 2.899999999999495  0 0 2.999999999999552  0 0 3.099999999999609  0 0 3.199999999999666  0 0 3.299999999999723  0 0 3.39999999999978  0 0 3.499999999999837  0 0 3.599999999999862  0 0 3.699999999999882  0 0 3.799999999999865  0 0 3.899999999999811  0 0 3.999999999999752  0 0 4.09999999999966  0 0 4.199999999999569  0 0 4.299999999999478  0 0 4.399999999999388  0 0 4.499999999999297  0 0 4.599999999999205  0 0 4.699999999999114  0 0 4.799999999999023  0 0 4.899999999998932  0 0 4.999999999998841  0 0 5.09999999999875  0 0 5.199999999998659  0 0 5.299999999998567  0 0 5.399999999998476  0 0 5.499999999998386  0 0 5.599999999998294  0 0 5.699999999998203  0 0 5.799999999998112  0 0 5.899999999998021  0 0 5.999999999997931  0 0 6.099999999997839  0 0 6.199999999997749  0 0 6.299999999997657  0 0 6.399999999997566  0 0 6.499999999997475  0 0 6.599999999997385  0 0 6.699999999997293  0 0 6.799999999997201  0 0 6.89999999999711  0 0 6.99999999999702  0 0 7.099999999996928  0 0 7.199999999996837  0 0 7.299999999996747  0 0 7.399999999996655  0 0 7.499999999996564  0 0 7.599999999996474  0 0 7.699999999996383  0 0 7.799999999996292  0 0 7.899999999996199  0 0 7.999999999996063  0 0 8.099999999995823  0 0 8.199999999995585  0 0 8.299999999995203  0 0 8.399999999994815  0 0 8.499999999994428  0 0 8.599999999994042  0 0 8.699999999993654  0 0 8.799999999993267  0 0 8.899999999992879  0 0 8.999999999992493  0 0 9.099999999992107  0 0 9.19999999999172  0 0 9.299999999991334  0 0 9.399999999990946  0 0 9.499999999990559  0 0 9.599999999990171  0 0 9.699999999989785  0 0 9.799999999989398  0 0 9.89999999998901  0 0 9.999999999988626  0 0 10.09999999998824  0 0 10.19999999998785  0 0 10.29999999998746  0 0 10.39999999998708  0 0 10.49999999998669  0 0 10.5999999999863  0 0 10.69999999998591  0 0 10.79999999998553  0 0 10.89999999998514  0 0 10.99999999998476  0 0 11.09999999998437  0 0 11.19999999998398  0 0 11.29999999998359  0 0 11.39999999998321  0 0 11.49999999998282  0 0 11.59999999998243  0 0 11.69999999998205  0 0 11.79999999998166  0 0 11.89999999998127  0 0 11.99999999998089  0 0 12.0999999999805  0 0 12.19999999998011  0 0 12.29999999997973  0 0 12.39999999997934  0 0 12.49999999997895  0 0 12.59999999997856  0 0 12.69999999997818  0 0 12.79999999997779  0 0 12.8999999999774  0 0 12.99999999997702  0 0 13.09999999997663  0 0 13.19999999997624  0 0 13.29999999997585  0 0 13.39999999997547  0 0 13.49999999997508  0 0 13.59999999997469  0 0 13.69999999997431  0 0 13.79999999997392  0 0 13.89999999997353  0 0 13.99999999997315  0 0 14.09999999997276  0 0 14.19999999997237  0 0 14.29999999997198  0 0 14.3999999999716  0 0 14.49999999997121  0 0 14.59999999997083  0 0 14.69999999997044  0 0 14.7999999999701  0 0 14.89999999996986  0 0 14.99999999996962  0 0 15.09999999996968  0 0 15.19999999996974  0 0 15.29999999996989  0 0 15.3999999999701  0 0 15.4999999999703  0 0 15.5999999999705  0 0 15.69999999997071  0 0 15.79999999997091  0 0 15.89999999997112  0 0 15.99999999997133  0 0 16.09999999997153  0 0 16.19999999997173  0 0 16.29999999997194  0 0 16.39999999997215  0 0 16.49999999997235  0 0 16.59999999997256  0 0 16.69999999997276  0 0 16.79999999997296  0 0 16.89999999997317  0 0 16.99999999997338  0 0 17.09999999997358  0 0 17.19999999997378  0 0 17.29999999997399  0 0 17.39999999997419  0 0 17.4999999999744  0 0 17.5999999999746  0 0 17.69999999997481  0 0 17.79999999997501  0 0 17.89999999997522  0 0 17.99999999997542  0 0 18.09999999997563  0 0 18.19999999997583  0 0 18.29999999997603  0 0 18.39999999997624  0 0 18.49999999997644  0 0 18.59999999997665  0 0 18.69999999997686  0 0 18.79999999997706  0 0 18.89999999997726  0 0 18.99999999997747  0 0 19.09999999997767  0 0 19.19999999997788  0 0 19.29999999997809  0 0 19.39999999997829  0 0 19.4999999999785  0 0 19.5999999999787  0 0 19.6999999999789  0 0 19.79999999997911  0 0 19.89999999997931  0 0 19.99999999997952  0 0 20.09999999997972  0 0 20.19999999997993  0 0 20.29999999998013  0 0 20.39999999998034  0 0 20.49999999998054  0 0 20.59999999998075  0 0 20.69999999998095  0 0 20.79999999998116  0 0 20.89999999998136  0 0 20.99999999998157  0 0 21.09999999998177  0 0 21.19999999998197  0 0 21.29999999998218  0 0 21.39999999998238  0 0 21.49999999998259  0 0 21.5999999999828  0 0 21.699999999983  0 0 21.7999999999832  0 0 21.89999999998341  0 0 21.99999999998361  0 0 22.09999999998382  0 0 22.19999999998403  0 0 22.29999999998423  0 0 22.39999999998443  0 0 22.49999999998464  0 0 22.59999999998485  0 0 22.69999999998505  0 0 22.79999999998526  0 0 22.89999999998546  0 0 22.99999999998566  0 0 23.09999999998587  0 0 23.19999999998607  0 0 23.29999999998628  0 0 23.39999999998648  0 0 23.49999999998669  0 0 23.59999999998689  0 0 23.6999999999871  0 0 23.7999999999873  0 0 23.89999999998751  0 0 23.99999999998771  0 0 24.09999999998792  0 0 24.19999999998812  0 0 24.29999999998832  0 0 24.39999999998853  0 0 24.49999999998873  0 0 24.59999999998894  0 0 24.69999999998915  0 0 24.79999999998935  0 0 24.89999999998955  0 0 24.99999999998976  0 0 25.09999999998997  0 0 25.19999999999017  0 0 25.29999999999038  0 0 25.39999999999058  0 0 25.49999999999078  0 0 25.59999999999099  0 0 25.6999999999912  0 0 25.7999999999914  0 0 25.8999999999916  0 0 25.99999999999181  0 0 26.09999999999201  0 0 26.19999999999222  0 0 26.29999999999242  0 0 26.39999999999263  0 0 26.49999999999283  0 0 26.59999999999304  0 0 26.69999999999324  0 0 26.79999999999345  0 0 26.89999999999365  0 0 26.99999999999385  0 0 27.09999999999406  0 0 27.19999999999427  0 0 27.29999999999447  0 0 27.39999999999467  0 0 27.49999999999488  0 0 27.59999999999508  0 0 27.6999999999953  0 0 27.7999999999955  0 0 27.8999999999957  0 0 27.99999999999591  0 0 28.09999999999611  0 0 28.19999999999632  0 0 28.29999999999652  0 0 28.39999999999672  0 0 28.49999999999693  0 0 28.59999999999713  0 0 28.69999999999733  0 0 28.79999999999754  0 0 28.89999999999775  0 0 28.99999999999795  0 0 29.09999999999816  0 0 29.19999999999837  0 0 29.29999999999857  0 0 29.39999999999877  0 0 29.49999999999898  0 0 29.59999999999918  0 0 29.69999999999939  0 0 29.79999999999959  0 0 29.8999999999998  1 0 0.09999999999997286  1 0 0.1999999999999457  1 0 0.2999999999999222  1 0 0.3999999999999007  1 0 0.4999999999998805  1 0 0.5999999999998634  1 0 0.6999999999998465  1 0 0.7999999999998206  
[...]
<PointData  Scalars="f_224"> 
<DataArray  type="Float64"  Name="f_224"  format="ascii">9.0075255752396543e-06  9.5005100009121721e-06  5.7869692577209427e-05  1.1444395408388118e-05  6.6699554406637518e-06  3.3643478965406368e-05  1.1523140836657359e-05  9.9117885086634419e-06  5.6793277964083747e-05  9.9634455648311950e-06  1.1513649487429257e-05  2.2452816669530559e-05  4.5598703448795014e+01  4.5597827290321909e+01  4.5593800331808922e+01  4.5593976635071677e+01  4.5593981297407950e+01  4.5593814920746922e+01  4.5597819458833520e+01  4.5598699180724026e+01  4.5594672291815613e+01  4.5594048391049782e+01  4.5594053300046632e+01  4.5594698355600507e+01  6.6446289383728720e-06  1.3705547208057207e-05  2.4142991654968197e-05  -4.3861943832212858e-06  4.1847344247582159e-06  -1.0291225818172799e-06  8.7931712540263038e-06  6.4392865848144060e-06  5.8256226175478990e-06  4.7658040271005257e-05  1.1266959893179419e-05  8.3391064026211645e-06  1.8681826093691052e-05  6.7868519423925495e-06  2.4693533215732011e-05  2.9047418865012711e-05  -4.9298350971429296e-06  5.9268748672156268e-05  1.2418938020921085e-05  2.9762105816998465e-05  1.6468716428496923e-05  1.6091314061528227e-05  7.2357635250111054e-06  5.3399967257108069e-05  4.2786567868211950e-06  8.4564874969283081e-06  1.3288669377857206e-05  4.9461441735518784e-06  6.5880312136579438e-06  -1.0438440903967919e-06  9.4782310049627982e-06  5.9016140209072697e-06  5.6449782407477937e-06  4.7594855961756869e-05  1.1312566532421491e-05  8.8268364113126110e-06  1.9965411040372325e-05  4.9377186735006495e-06  1.1224017810227537e-05  5.7152718475613203e-05  4.1163427825855172e-05  5.8634885500250519e-07  2.6275486785612377e-05  1.4436759968654308e-05  6.0118750616063035e-05  1.5107552571374721e-05  1.3694168192842688e-05  1.8545845361734034e-05  4.5598491148048581e+01  4.5598364275663144e+01  4.5598234083609775e+01  4.5598116370502332e+01  4.5597985798574271e+01  4.5597928722930732e+01  4.5597886119019883e+01  4.5597846410081551e+01  4.5597795117109229e+01  4.5593796036952924e+01  4.5593808584194406e+01  4.5593862245740340e+01  4.5593920595262240e+01  4.5590859768192068e+01  4.5588610429514063e+01  4.5587319022267025e+01  4.5586869769813028e+01  4.5587267371678479e+01  4.5588613589623513e+01  4.5590836783177835e+01  4.5593896373068802e+01  4.5593858816122989e+01  4.5593825297286870e+01  4.5593830667668755e+01  4.5597786414698867e+01  4.5597844803426213e+01  4.5597888006863229e+01  4.5597936363819315e+01  4.5597986064236018e+01  4.5598108970574543e+01  4.5598234155256634e+01  4.5598369681705790e+01  4.5598492692162885e+01  4.5594511047875045e+01  4.5594366553665616e+01  4.5594263490543462e+01  4.5594168891856597e+01  4.5590955002840445e+01  4.5588716861303354e+01  4.5587365882377348e+01  4.5586894435052280e+01  4.5587395249221451e+01  4.5588710430015418e+01  4.5590932719612709e+01  4.5594141698517483e+01  4.5594258840158801e+01  4.5594403510833764e+01  4.5594550725344952e+01  1.3056659393584025e-02  2.3961890326594886e-02  3.4847051033280139e-02  4.6456439687368935e-02  5.9717450359230803e-02  7.3742150733043660e-02  8.9298152255545091e-02  1.0662738415999612e-01  1.2607173163798954e-01  1.4675055063038961e-01  1.6905755890831098e-01  1.9307572758416391e-01  2.1934623372522985e-01  2.4739292909202312e-01  2.7670202955328904e-01  3.0794211673309324e-01  3.4082603442395393e-01  3.7586557006703242e-01  4.1190576094380887e-01  4.4946763805861434e-01  4.8912230725164157e-01  5.3087256711261444e-01  5.7472253597951228e-01  6.2045677959839252e-01  6.6793422571440331e-01  7.1629690492888309e-01  7.6670262851436821e-01  8.1828810717857314e-01  8.7147111514269027e-01  9.2634385253729967e-01  9.8275457115015163e-01  1.0408312480437962e+00  1.1005898788153192e+00  1.1621524729981836e+00  1.2252461625406814e+00  1.2899082690849657e+00  1.3562322195926955e+00  1.4242125078019141e+00  1.4932565597443155e+00  1.5635568363723320e+00  1.6357909120343463e+00  1.7100371275225437e+00  1.7855080417448532e+00  1.8619730588122805e+00  1.9401955716569583e+00  2.0202532959993342e+00  2.1009882844434853e+00  2.1833828194699105e+00  2.2674502072740457e+00  2.3532470439687598e+00  2.4401021482599301e+00  2.5281702673954500e+00  2.6179914731129412e+00  2.7089597601917399e+00  2.8007244494699246e+00  2.8938285709142999e+00  2.9885127607943547e+00  3.0847674457893666e+00  3.1817743695981724e+00  3.2803411604937263e+00  3.3807016720334238e+00  3.4821281478680364e+00  3.5846199505967391e+00  3.6885977677690232e+00  3.7938330990459210e+00  3.9002273974180519e+00  4.0079410506505120e+00  4.1170442276489405e+00  4.2269897728622468e+00  4.3384024460872066e+00  4.4505948718948538e+00  4.5642500799922461e+00  4.6787478550155681e+00  4.7945659504206812e+00  4.9113332057730918e+00  5.0292483808769939e+00  5.1484054782184732e+00  5.2684002306653239e+00  5.3894232452090449e+00  5.5118817794539652e+00  5.6358220018587968e+00  5.7604947976889429e+00  5.8864558171509547e+00  6.0132526649962257e+00  6.1413654224504803e+00  6.2703860347879292e+00  6.4001904823821887e+00  6.5310382865553649e+00  6.6626853160652990e+00  6.7953746143114984e+00  6.9288445845012836e+00  7.0640588287938320e+00  7.1999963883263938e+00  7.3369354375722677e+00  7.4750242532876356e+00  7.6140151542357346e+00  7.7536244672341921e+00  7.8942370920315286e+00  8.0353769166246014e+00  8.1775144394824366e+00  8.3205692564954585e+00  8.4646743919648877e+00  8.6095348504703963e+00  8.7554741409961778e+00  8.9023163705937325e+00  9.0497476861294484e+00  9.1980981645267281e+00  9.3470865170423565e+00  9.4973532802408336e+00  9.6480269168898456e+00  9.7998117778190021e+00  9.9520386888709407e+00  1.0105340701880143e+01  1.0259456242353572e+01  1.0414150630385667e+01  1.0569491384776191e+01  1.0726233048126225e+01  1.0883312518152286e+01  1.1041126259891481e+01  1.1199905882977630e+01  1.1359081449222101e+01  1.1519140092033462e+01  1.1679749223840314e+01  1.1841030230839634e+01  1.2002942388259747e+01  1.2165576566725967e+01  1.2329004655012504e+01  1.2492836979835989e+01  1.2657569465019638e+01  1.2822798714270588e+01  1.2988810264696271e+01  1.3155341652327481e+01  1.3322696688704603e+01  1.3490666530274291e+01  1.3659300786641387e+01  1.3828477270769815e+01  1.3998362663373396e+01  1.4168521317873946e+01  1.4339190641064079e+01  1.4510765872125647e+01  1.4682576625779905e+01  1.4855507457076598e+01  1.5028807838643779e+01  1.5202422069394869e+01  1.5376841477406705e+01  1.5551675249884960e+01  1.5726681968753766e+01  1.5902517915388948e+01  1.6078899214369585e+01  1.6255674236937665e+01  1.6432804579080763e+01  1.6610696368583458e+01  1.6789218745168114e+01  1.6968132924595125e+01  1.7147470382483224e+01  1.7327251966562176e+01  1.7507475545733278e+01  1.7687976734594635e+01  1.7869163566040289e+01  1.8050586511004550e+01  1.8232474504752478e+01  1.8414726891497995e+01  1.8597628846647481e+01  1.8780711381889258e+01  1.8964322129970896e+01  1.9148473033705521e+01  1.9332961416073445e+01  1.9517874069274157e+01  1.9703203372450098e+01  1.9888821467848491e+01  2.0074777166159397e+01  2.0261035538910900e+01  2.0447809457128454e+01  2.0635015749925429e+01  2.0822306852114618e+01  2.1010020604335338e+01  2.1198121255573813e+01  2.1386620403482496e+01  2.1575512322404528e+01  2.1764626398107318e+01  2.1954171052740410e+01  2.2143904752843842e+01  2.2333981240926569e+01  2.2524313863238383e+01  2.2714977247330676e+01  2.2905847166824749e+01  2.3097151626578015e+01  2.3288493051167272e+01  2.3480190116497035e+01  2.3672194405407915e+01  2.3864592691518062e+01  2.4057023763814410e+01  2.4249720194343038e+01  2.4442678058808401e+01  2.4636013038680947e+01  2.4829554303721260e+01  2.5023344091162336e+01  2.5217428785694409e+01  2.5411596014185111e+01  2.5606075309180252e+01  2.5800667364370231e+01  2.5995614054695160e+01  2.6190891098858511e+01  2.6386258924831388e+01  2.6581806689340723e+01  2.6777534161986274e+01  2.6973448291358345e+01  2.7169469927389919e+01  2.7365706580858980e+01  2.7562149338815303e+01  2.7758758041291024e+01  2.7955608624144769e+01  2.8152658527539590e+01  2.8349786850091387e+01  2.8547113893536455e+01  2.8744507475691837e+01  2.8942146230511653e+01  2.9139992489956288e+01  2.9337853375751546e+01  2.9535947343068809e+01  2.9734111932817324e+01  2.9932416313683742e+01  3.0130894716347605e+01  3.0329507475101106e+01  3.0528245346569282e+01  3.0727150338991091e+01  3.0926057812645368e+01  3.1125151469016309e+01  3.1324366983904220e+01  3.1523702486660387e+01  3.1723184470449247e+01  3.1922579227642949e+01  3.2122206004636823e+01  3.2321858408355141e+01  3.2521603740907530e+01  3.2721466286177900e+01  3.2921393831566014e+01  3.3121434831451964e+01  3.3321628274969520e+01  3.3521768178648379e+01  3.3722037928375507e+01  3.3922356790650966e+01  3.4122794182026077e+01  3.4323230904081193e+01  3.4523741833156095e+01  3.4724300948069320e+01  3.4925034083559495e+01  3.5125690164294518e+01  3.5326464492288665e+01  3.5527355167010946e+01  3.5728182955568379e+01  3.5929163835014975e+01  3.6130101793619538e+01  3.6331165948190183e+01  3.6532196104345630e+01  3.6733333768833916e+01  3.6934429579940556e+01  3.7135662757009769e+01  3.7336878385987347e+01  3.7538082638465511e+01  3.7739379033499738e+01  3.7940661680122936e+01  3.8142027380990690e+01  3.8343390715976845e+01  3.8544783388876851e+01  3.8746165296425843e+01  3.8947597700141394e+01  3.9149006167239541e+01  3.9350548166863405e+01  3.9551963545175468e+01  3.9753499354786477e+01  3.9955014870773780e+01  4.0156506578552985e+01  4.0358074342291665e+01  4.0559562939402362e+01  4.0761097597471817e+01  4.0962707757315449e+01  4.1164243977132429e+01  4.1365804220152995e+01  4.1567360857573178e+01  4.1768975030030731e+01  4.1970550453277809e+01  4.2172100673276034e+01  4.2373711495156456e+01  4.2575239063503233e+01  4.2776812152937282e+01  4.2978446897366517e+01  4.3179964614546556e+01  4.3381556174527702e+01  4.3583120223207480e+01  4.3784722175768813e+01  4.3986306425973893e+01  4.4187822253582347e+01  4.4389423437999994e+01  4.4590941327738904e+01  4.4792534872352384e+01  4.4994038352320572e+01  4.5195587313145964e+01  4.5397153260151306e+01  1.3306020108854167e-02  2.3618261549974696e-02  3.4656169862240717e-02  4.6029459007494208e-02  5.8772768988875686e-02  7.2993974388493046e-02  8.8359754681656008e-02  1.0572366553348819e-01  1.2500659214296514e-01  1.4566331582678149e-01  1.6816733901819550e-01  1.9219237078671683e-01  2.1830728946053798e-01  2.4667233478882633e-01  2.7675434210722361e-01  3.0806188800866319e-01  3.4099719749768359e-01  3.7569409658408659e-01  4.1159901802010934e-01  4.4917050546435311e-01  4.8918611728733824e-01  5.3153555851424117e-01  5.7631341166425276e-01  6.2246694132321723e-01  6.6936724701070960e-01  7.1809906914285881e-01  7.6798343831352134e-01  8.1912114308635209e-01  8.7147793656868300e-01  9.2595851333277401e-01  9.8254036328256233e-01  1.0406395719775285e+00  1.1006394063300566e+00  1.1621550201017510e+00  1.2253216610864917e+00  1.2905998886455285e+00  1.3572605037716639e+00  1.4253644491555908e+00  1.4946118545323528e+00  1.5650515722114209e+00  1.6369391832190121e+00  1.7110657159413050e+00  1.7862097619738690e+00  1.8624280929466097e+00  1.9408948155508829e+00  2.0200657346198425e+00  2.1006387293580020e+00  2.1836088222987717e+00  2.2669565345420097e+00  2.3520988755216616e+00  2.4387063546967607e+00  2.5266816486117443e+00  2.6160967717022539e+00  2.7070674099846581e+00  2.7998818463970805e+00  2.8938056688306424e+00  2.9890675739003032e+00  3.0851949029472139e+00  3.1823220838140660e+00  3.2807682021154547e+00  3.3806429603076995e+00  3.4812187079758736e+00  3.5836164792206437e+00  3.6873800047054357e+00  3.7927166106252868e+00  3.8990211503114529e+00  4.0066146661874935e+00  4.1153270824138009e+00  4.2252816723591540e+00  4.3365639590943497e+00  4.4489074626625786e+00  4.5625661218476594e+00  4.6775337654870386e+00  4.7932421074962139e+00  4.9103450771378254e+00  5.0287038686837420e+00  5.1476853376119101e+00  5.2684157673040302e+00  5.3900238824133497e+00  5.5123545114346584e+00  5.6357796417166615e+00  5.7604529998325065e+00  5.8863946802273777e+00  6.0131348077824747e+00  6.1406004778702146e+00  6.2694656699021074e+00  6.3992287992376813e+00  6.5300689355011974e+00  6.6620935869866145e+00  6.7949168648673783e+00  6.9287467076225440e+00  7.0640177746006954e+00  7.1999120126588956e+00  7.3367676819711205e+00  7.4746966399423007e+00  7.6132306596203918e+00  7.7526627768963774e+00  7.8931326491603473e+00  8.0342640691606331e+00  8.1765022937885217e+00  8.3196049765613722e+00  8.4635811017022604e+00  8.6085521839300281e+00  8.7544747830381198e+00  8.9011435944952719e+00  9.0487035841222863e+00  9.1972702588579391e+00  9.3469079413865401e+00  9.4969858520480095e+00  9.6479615953706510e+00  9.7996813213731375e+00  9.9522771028327099e+00  1.0105514173782577e+01  1.0259193487153397e+01  1.0413850696061733e+01  1.0569147303435312e+01  1.0725408603335605e+01  1.0882572565292874e+01  1.1040306480344658e+01  1.1198791902739236e+01  1.1357760516519434e+01  1.1517625010706137e+01  1.1678234481594314e+01  1.1839719318525280e+01  1.2001716100186966e+01  1.2164298969594643e+01  1.2327732337051154e+01  1.2491620223776163e+01  1.2656344910148720e+01  1.2821822675939922e+01  1.2987516948048912e+01  1.3154171457619654e+01  1.3321273669083999e+01  1.3489196742699448e+01  1.3657932597281960e+01  1.3827111417575889e+01  1.3996858752514077e+01  1.4167206084620025e+01  1.4338156332162733e+01  1.4509821207525315e+01  1.4681655024120630e+01  1.4854513728296602e+01  1.5027595973997551e+01  1.5201235063514090e+01  1.5375548304016462e+01  1.5550401905215821e+01  1.5725467616201964e+01  1.5901471461123997e+01  1.6077814057369341e+01  1.6254618838015581e+01  1.6431784578727509e+01  1.6609550397048732e+01  1.6787854823315136e+01  1.6966699063833030e+01  1.7145898789029182e+01  1.7325660912425658e+01  1.7505907051172208e+01  1.7686658573294380e+01  1.7867973597363317e+01  1.8049607300086311e+01  1.8231596047459313e+01  1.8414036191977736e+01  1.8596666046318152e+01  1.8779720467875858e+01  1.8963185544130813e+01  1.9147178711044130e+01  1.9331661054334706e+01  1.9516542641072206e+01  1.9701967493535996e+01  1.9887639845887541e+01  2.0073658938758776e+01  2.0260102224517617e+01  2.0446759489381883e+01  2.0633903442521490e+01  2.0821184710754817e+01  2.1009119365883237e+01  2.1197255109308269e+01  2.1385587228121775e+01  2.1574273645202084e+01  2.1763293906290826e+01  2.1952793536470878e+01  2.2142490724607406e+01  2.2332488795691507e+01  2.2522884796206810e+01  2.2713374902328436e+01  2.2904290695193026e+01  2.3095524272111042e+01  2.3286924811227017e+01  2.3478734251602166e+01  2.3670860846575209e+01  2.3863112247681023e+01  2.4055664025477999e+01  2.4248421408047108e+01  2.4441530542453165e+01  2.4634893040643743e+01  2.4828545603941620e+01  2.5022476578512251e+01  2.5216600624840190e+01  2.5411016164897966e+01  2.5605456571221357e+01  2.5800090542265625e+01  2.5995073761854126e+01  2.6190041072130143e+01  2.6385343745746844e+01  2.6580887860321610e+01  2.6776534173275717e+01  2.6972553171937587e+01  2.7168596986247366e+01  2.7364884593677893e+01  2.7561393857020597e+01  2.7758003529290100e+01  2.7954692342536759e+01  2.8151663864957264e+01  2.8348907465607223e+01  2.8546161390954449e+01  2.8743623782549260e+01  2.8941265950901336e+01  2.9139052722085772e+01  2.9337017292957484e+01  2.9535112390707653e+01  2.9733280359668772e+01  2.9931675204405366e+01  3.0130098507733678e+01  3.0328727930788759e+01  3.0527433087082137e+01  3.0726201440618251e+01  3.0925170091518641e+01  3.1124148369512895e+01  3.1323293473312518e+01  3.1522689679660637e+01  3.1722073180045552e+01  3.1921551197021746e+01  3.2121085323820878e+01  3.2320739073527776e+01  3.2520511578925117e+01  3.2720355807976368e+01  3.2920382022283469e+01  3.3120378255675192e+01  3.3320565741510073e+01  3.3520747837862579e+01  3.3721093198119959e+01  3.3921407863378789e+01  3.4121826157413103e+01  3.4322330200340630e+01  3.4522863234571183e+01  3.4723476779251335e+01  3.4924163097488737e+01  3.5124856124767305e+01  3.5325654335045471e+01  3.5526532307397851e+01  3.5727332608466526e+01  3.5928290685539601e+01  3.6129242780759526e+01  3.6330285042452637e+01  3.6531403996295126e+01  3.6732525529673183e+01  3.6933661445441444e+01  3.7134815953864951e+01  3.7336024725150750e+01  3.7537279037771185e+01  3.7738540505472599e+01  3.7939895880273561e+01  3.8141216371213041e+01  3.8342582142057900e+01  3.8543959016144754e+01  3.8745349380617846e+01  3.8946743518761096e+01  3.9148166768741639e+01  3.9349669103545992e+01  3.9551138532952940e+01  3.9752618533097468e+01  3.9954135630289699e+01  4.0155606636186988e+01  4.0357134873592159e+01  4.0558651465850218e+01  4.0760254721861024e+01  4.0961798625745104e+01  4.1163371197433989e+01  4.1364933807352742e+01  4.1566458500030542e+01  4.1768075215147874e+01  4.1969612871525079e+01  4.2171204521712554e+01  4.2372788993432508e+01  4.2574392471009084e+01  4.2775977377628919e+01  4.2977553067898285e+01  4.3179097393929538e+01  4.3380690450302019e+01  4.3582239162183591e+01  4.3783852557381294e+01  4.3985379768829709e+01  4.4186969056283104e+01  4.4388525106850025e+01  4.4590101039099430e+01  4.4791600097044842e+01  4.4993187646752880e+01  4.5194727303946088e+01  4.5396238459412132e+01  1.0253112426373119e-02  1.8470429362774082e-02  2.6773381808223126e-02  3.6641967156166771e-02  4.8271026998217836e-02  6.1280931422691323e-02  7.5818251765325168e-02  9.2179304344655141e-02  1.1070979839866771e-01  1.3123620091485450e-01  1.5300918841891839e-01  1.7666690167483640e-01  2.0236718261416092e-01  2.3023869733225966e-01  2.6015401964420848e-01  2.9158866359913527e-01  3.2457230214304572e-01  3.5920118372766607e-01  3.9527849304659651e-01  4.3258747142715109e-01  4.7209344060528935e-01  5.1428052285923931e-01  5.5900963697320860e-01  6.0540098770884154e-01  6.5266475831922643e-01  7.0088446063349141e-01  7.5125314862803205e-01  8.0250952146978527e-01  8.5500153713436977e-01  9.0931229912677969e-01  9.6580142358201326e-01  1.0239861172594442e+00  1.0840383794621509e+00  1.1452775308645315e+00  1.2087650735526896e+00  1.2738534156471644e+00  1.3404440882411084e+00  1.4089332329498676e+00  1.4780383405965747e+00  1.5485510810403778e+00  1.6208146356613489e+00  1.6947717026658342e+00  1.7700902914299042e+00  1.8462989605579831e+00  1.9247897936321936e+00  2.0041328000285197e+00  2.0847544324659140e+00  2.1677347578999635e+00  2.2513760151578950e+00  2.3364977398220623e+00  2.4232781389398732e+00  2.5112871150669265e+00  2.6007602164843084e+00  2.6916861484341479e+00  2.7841574679872951e+00  2.8785063951915126e+00  2.9736878749458326e+00  3.0698846522429095e+00  3.1674173973179292e+00  3.2659795321457996e+00  3.3654654005182696e+00  3.4665975099284347e+00  3.5688870101761827e+00  3.6728045716128901e+00  3.7779012810242016e+00  3.8845178625622423e+00  3.9920125174637713e+00  4.1006900842866756e+00  4.2108032673037972e+00  4.3221865203953058e+00  4.4347277938372001e+00  4.5484919230883021e+00  4.6632403282835639e+00  4.7793383000518217e+00  4.8963244563292143e+00  5.0145565424319720e+00  5.1341983161521991e+00  5.2547777325564944e+00  5.3762340759864609e+00  5.4987719986891497e+00  5.6222977851934104e+00  5.7470840083493568e+00  5.8726577230356298e+00  5.9996364768686936e+00  6.1275532774214954e+00  6.2560775493251377e+00  6.3861465748685609e+00  6.5170846358793719e+00  6.6490577677545035e+00  6.7820806800977502e+00  6.9159765736647589e+00  7.0510072664373542e+00  7.1873682645693009e+00  7.3242267882865324e+00  7.4619429161341158e+00  7.6007775824755157e+00  7.7403124435839405e+00  7.8806250901250996e+00  8.0217757062546671e+00  8.1640773077796425e+00  8.3072967057360554e+00  8.4514493061244291e+00  8.5962722806381784e+00  8.7422336954355302e+00  8.8891047082808239e+00  9.0366544858715674e+00  9.1853536832080156e+00  9.3348893406284201e+00  9.4854564742028113e+00  9.6364895611760026e+00  9.7882767833714812e+00  9.94083956919