<?xml version="1.0"?>
<VTKFile type="UnstructuredGrid"  version="0.1"  >
<UnstructuredGrid>
<Piece  NumberOfPoints="21451" NumberOfCells="65821">
<Points>
<DataArray  type="Float64"  NumberOfComponents="3"  format="ascii">0 0 0  1 0 0  1 0.1 0  0.55 0.1 0  0.55 0.9 0  1 0.9 0  1 1 0  0 1 0  0 0.9 0  0.45 0.9 0  0.45 0.1 0  0 0.1 0  0 0 30  1 0 30  1 0.1 30  0.55 0.1 30  0.55 0.9 30  1 0.9 30  1 1 30  0 1 30  0 0.9 30  0.45 0.9 30  0.45 0.1 30  0 0.1 30  0.09999999999981467 0 0  0.1999999999995579 0 0  0.2999999999992664 0 0  0.3999999999989749 0 0  0.4999999999986943 0 0  0.5999999999989468 0 0  0.69999999999921 0 0  0.7999999999994734 0 0  0.8999999999997368 0 0  0.9100000000002904 0.1 0  0.8200000000005419 0.1 0  0.7300000000004594 0.1 0  0.6400000000001429 0.1 0  0.55 0.1999999999998373 0  0.55 0.2999999999995446 0  0.55 0.3999999999992517 0  0.55 0.4999999999989587 0  0.55 0.5999999999992082 0  0.55 0.6999999999994794 0  0.55 0.7999999999997506 0  0.6399999999997097 0.9 0  0.7299999999994582 0.9 0  0.8199999999995407 0.9 0  0.9099999999998571 0.9 0  0.8999999999995836 1 0  0.7999999999999998 1 0  0.7000000000006934 1 0  0.6000000000013869 1 0  0.5000000000020587 1 0  0.4000000000016644 1 0  0.3000000000012483 1 0  0.2000000000008322 1 0  0.100000000000416 1 0  0.08999999999980426 0.9 0  0.1799999999995429 0.9 0  0.2699999999995232 0.9 0  0.3599999999997603 0.9 0  0.45 0.8000000000001194 0  0.45 0.7000000000004121 0  0.45 0.6000000000007266 0  0.45 0.5000000000010305 0  0.45 0.400000000000781 0  0.45 0.3000000000005206 0  0.45 0.2000000000002494 0  0.3600000000001345 0.1 0  0.2700000000004186 0.1 0  0.180000000000462 0.1 0  0.09000000000023223 0.1 0  0.09999999999981467 0 30  0.1999999999995579 0 30  0.2999999999992664 0 30  0.3999999999989749 0 30  0.4999999999986943 0 30  0.5999999999989468 0 30  0.69999999999921 0 30  0.7999999999994734 0 30  0.8999999999997368 0 30  0.9100000000002904 0.1 30  0.8200000000005419 0.1 30  0.7300000000004594 0.1 30  0.6400000000001429 0.1 30  0.55 0.1999999999998373 30  0.55 0.2999999999995446 30  0.55 0.3999999999992517 30  0.55 0.4999999999989587 30  0.55 0.5999999999992082 30  0.55 0.6999999999994794 30  0.55 0.7999999999997506 30  0.6399999999997097 0.9 30  0.7299999999994582 0.9 30  0.8199999999995407 0.9 30  0.9099999999998571 0.9 30  0.8999999999995836 1 30  0.7999999999999998 1 30  0.7000000000006934 1 30  0.6000000000013869 1 30  0.5000000000020587 1 30  0.4000000000016644 1 30  0.3000000000012483 1 30  0.2000000000008322 1 30  0.100000000000416 1 30  0.08999999999980426 0.9 30  0.1799999999995429 0.9 30  0.2699999999995232 0.9 30  0.3599999999997603 0.9 30  0.45 0.8000000000001194 30  0.45 0.7000000000004121 30  0.45 0.6000000000007266 30  0.45 0.5000000000010305 30  0.45 0.400000000000781 30  0.45 0.3000000000005206 30  0.45 0.2000000000002494 30  0.3600000000001345 0.1 30  0.2700000000004186 0.1 30  0.180000000000462 0.1 30  0.09000000000023223 0.1 30  0 0 0.09999999999997286  0 0 0.1999999999999457  0 0 0.2999999999999222  0 0 0.3999999999999007  0 0 0.4999999999998805  0 0 0.5999999999998634  0 0 0.6999999999998465  0 0 0.7999999999998206  0 0 0.8999999999997943  0 0 0.9999999999997452  0 0 1.099999999999682  0 0 1.199999999999611  0 0 1.29999999999952  0 0 1.399999999999429  0 0 1.499999999999338  0 0 1.599999999999247  0 0 1.699999999999167  0 0 1.799999999999094  0 0 1.89999999999904  0 0 1.999999999999042  0 0 2.099999999999044  0 0 2.199999999999095  0 0 2.299999999999153  0 0 2.399999999999209  0 0 2.499999999999267  0 0 2.599999999999324  0 0 2.699999999999381  0 0 2.799999999999438  0 0 2.899999999999495  0 0 2.999999999999552  0 0 3.099999999999609  0 0 3.199999999999666  0 0 3.299999999999723  0 0 3.39999999999978  0 0 3.499999999999837  0 0 3.599999999999862  0 0 3.699999999999882  0 0 3.799999999999865  0 0 3.899999999999811  0 0 3.999999999999752  0 0 4.09999999999966  0 0 4.199999999999569  0 0 4.299999999999478  0 0 4.399999999999388  0 0 4.499999999999297  0 0 4.599999999999205  0 0 4.699999999999114  0 0 4.799999999999023  0 0 4.899999999998932  0 0 4.999999999998841  0 0 5.09999999999875  0 0 5.199999999998659  0 0 5.299999999998567  0 0 5.399999999998476  0 0 5.499999999998386  0 0 5.599999999998294  0 0 5.699999999998203  0 0 5.799999999998112  0 0 5.899999999998021  0 0 5.999999999997931  0 0 6.099999999997839  0 0 6.199999999997749  0 0 6.299999999997657  0 0 6.399999999997566  0 0 6.499999999997475  0 0 6.599999999997385  0 0 6.699999999997293  0 0 6.799999999997201  0 0 6.89999999999711  0 0 6.99999999999702  0 0 7.099999999996928  0 0 7.199999999996837  0 0 7.299999999996747  0 0 7.399999999996655  0 0 7.499999999996564  0 0 7.599999999996474  0 0 7.699999999996383  0 0 7.799999999996292  0 0 7.899999999996199  0 0 7.999999999996063  0 0 8.099999999995823  0 0 8.199999999995585  0 0 8.299999999995203  0 0 8.399999999994815  0 0 8.499999999994428  0 0 8.599999999994042  0 0 8.699999999993654  0 0 8.799999999993267  0 0 8.899999999992879  0 0 8.999999999992493  0 0 9.099999999992107  0 0 9.19999999999172  0 0 9.299999999991334  0 0 9.399999999990946  0 0 9.499999999990559  0 0 9.599999999990171  0 0 9.699999999989785  0 0 9.799999999989398  0 0 9.89999999998901  0 0 9.999999999988626  0 0 10.09999999998824  0 0 10.19999999998785  0 0 10.29999999998746  0 0 10.39999999998708  0 0 10.49999999998669  0 0 10.5999999999863  0 0 10.69999999998591  0 0 10.79999999998553  0 0 10.89999999998514  0 0 10.99999999998476  0 0 11.09999999998437  0 0 11.19999999998398  0 0 11.29999999998359  0 0 11.39999999998321  0 0 11.49999999998282  0 0 11.59999999998243  0 0 11.69999999998205  0 0 11.79999999998166  0 0 11.89999999998127  0 0 11.99999999998089  0 0 12.0999999999805  0 0 12.19999999998011  0 0 12.29999999997973  0 0 12.39999999997934  0 0 12.49999999997895  0 0 12.59999999997856  0 0 12.69999999997818  0 0 12.79999999997779  0 0 12.8999999999774  0 0 12.99999999997702  0 0 13.09999999997663  0 0 13.19999999997624  0 0 13.29999999997585  0 0 13.39999999997547  0 0 13.49999999997508  0 0 13.59999999997469  0 0 13.69999999997431  0 0 13.79999999997392  0 0 13.89999999997353  0 0 13.99999999997315  0 0 14.09999999997276  0 0 14.19999999997237  0 0 14.29999999997198  0 0 14.3999999999716  0 0 14.49999999997121  0 0 14.59999999997083  0 0 14.69999999997044  0 0 14.7999999999701  0 0 14.89999999996986  0 0 14.99999999996962  0 0 15.09999999996968  0 0 15.19999999996974  0 0 15.29999999996989  0 0 15.3999999999701  0 0 15.4999999999703  0 0 15.5999999999705  0 0 15.69999999997071  0 0 15.79999999997091  0 0 15.89999999997112  0 0 15.99999999997133  0 0 16.09999999997153  0 0 16.19999999997173  0 0 16.29999999997194  0 0 16.39999999997215  0 0 16.49999999997235  0 0 16.59999999997256  0 0 16.69999999997276  0 0 16.79999999997296  0 0 16.89999999997317  0 0 16.99999999997338  0 0 17.09999999997358  0 0 17.19999999997378  0 0 17.29999999997399  0 0 17.39999999997419  0 0 17.4999999999744  0 0 17.5999999999746  0 0 17.69999999997481  0 0 17.79999999997501  0 0 17.89999999997522  0 0 17.99999999997542  0 0 18.09999999997563  0 0 18.19999999997583  0 0 18.29999999997603  0 0 18.39999999997624  0 0 18.49999999997644  0 0 18.59999999997665  0 0 18.69999999997686  0 0 18.79999999997706  0 0 18.89999999997726  0 0 18.99999999997747  0 0 19.09999999997767  0 0 19.19999999997788  0 0 19.29999999997809  0 0 19.39999999997829  0 0 19.4999999999785  0 0 19.5999999999787  0 0 19.6999999999789  0 0 19.79999999997911  0 0 19.89999999997931  0 0 19.99999999997952  0 0 20.09999999997972  0 0 20.19999999997993  0 0 20.29999999998013  0 0 20.39999999998034  0 0 20.49999999998054  0 0 20.59999999998075  0 0 20.69999999998095  0 0 20.79999999998116  0 0 20.89999999998136  0 0 20.99999999998157  0 0 21.09999999998177  0 0 21.19999999998197  0 0 21.29999999998218  0 0 21.39999999998238  0 0 21.49999999998259  0 0 21.5999999999828  0 0 21.699999999983  0 0 21.7999999999832  0 0 21.89999999998341  0 0 21.99999999998361  0 0 22.09999999998382  0 0 22.19999999998403  0 0 22.29999999998423  0 0 22.39999999998443  0 0 22.49999999998464  0 0 22.59999999998485  0 0 22.69999999998505  0 0 22.79999999998526  0 0 22.89999999998546  0 0 22.99999999998566  0 0 23.09999999998587  0 0 23.19999999998607  0 0 23.29999999998628  0 0 23.39999999998648  0 0 23.49999999998669  0 0 23.59999999998689  0 0 23.6999999999871  0 0 23.7999999999873  0 0 23.89999999998751  0 0 23.99999999998771  0 0 24.09999999998792  0 0 24.19999999998812  0 0 24.29999999998832  0 0 24.39999999998853  0 0 24.49999999998873  0 0 24.59999999998894  0 0 24.69999999998915  0 0 24.79999999998935  0 0 24.89999999998955  0 0 24.99999999998976  0 0 25.09999999998997  0 0 25.19999999999017  0 0 25.29999999999038  0 0 25.39999999999058  0 0 25.49999999999078  0 0 25.59999999999099  0 0 25.6999999999912  0 0 25.7999999999914  0 0 25.8999999999916  0 0 25.99999999999181  0 0 26.09999999999201  0 0 26.19999999999222  0 0 26.29999999999242  0 0 26.39999999999263  0 0 26.49999999999283  0 0 26.59999999999304  0 0 26.69999999999324  0 0 26.79999999999345  0 0 26.89999999999365  0 0 26.99999999999385  0 0 27.09999999999406  0 0 27.19999999999427  0 0 27.29999999999447  0 0 27.39999999999467  0 0 27.49999999999488  0 0 27.59999999999508  0 0 27.6999999999953  0 0 27.7999999999955  0 0 27.8999999999957  0 0 27.99999999999591  0 0 28.09999999999611  0 0 28.19999999999632  0 0 28.29999999999652  0 0 28.39999999999672  0 0 28.49999999999693  0 0 28.59999999999713  0 0 28.69999999999733  0 0 28.79999999999754  0 0 28.89999999999775  0 0 28.99999999999795  0 0 29.09999999999816  0 0 29.19999999999837  0 0 29.29999999999857  0 0 29.39999999999877  0 0 29.49999999999898  0 0 29.59999999999918  0 0 29.69999999999939  0 0 29.79999999999959  0 0 29.8999999999998  1 0 0.09999999999997286  1 0 0.1999999999999457  1 0 0.2999999999999222  1 0 0.3999999999999007  1 0 0.4999999999998805  1 0 0.5999999999998634  1 0 0.6999999999998465  1 0 0.7999999999998206  
[...]
<PointData  Scalars="f_239"> 
<DataArray  type="Float64"  Name="f_239"  format="ascii">3.4056436366797596e+10  3.6211914303011421e+10  2.7532256076083023e+10  1.7349499908624161e+10  1.7105969738576031e+10  2.7595720790952522e+10  3.8174494928195969e+10  3.5948973824298912e+10  2.7707598238081417e+10  1.7913252663247559e+10  1.8794860661422798e+10  2.9886135975708084e+10  1.7930376704994529e+06  1.3013829855316100e+06  1.7193639098606021e+06  2.5541102751916386e+07  2.0292167391470760e+07  1.3526728921881109e+06  2.0382840786940907e+06  1.2706349886856503e+06  1.7386481653932047e+06  3.8135766371718489e+07  3.1538091492260650e+07  1.6043907382117813e+06  2.7483147300131405e+10  2.5198770616035225e+10  2.4064141400380638e+10  2.8270608728669300e+10  2.6379573149314602e+10  2.7176105405535740e+10  2.5384334641846165e+10  2.5660643825209568e+10  2.7317913708164856e+10  9.5289993239362011e+09  1.8292945726744305e+10  2.1466673611089363e+10  1.3562675584198418e+10  1.5089427517870522e+10  9.3972859311719418e+09  4.7006273124913950e+09  1.6279419531207616e+09  4.5535252846202412e+09  1.0867107768464714e+10  1.0814810485333820e+10  1.7268826862567287e+10  1.7673251697316818e+10  2.0639533862294964e+10  8.3877066276282501e+09  2.8292769637244560e+10  2.7839759424729889e+10  2.4031383526472778e+10  2.8947555050280655e+10  2.6357215620335747e+10  2.7587601673015297e+10  2.5417077347660290e+10  2.5696333134204941e+10  2.7150062862645054e+10  9.8531686341681461e+09  1.8403728987983185e+10  2.1647996513652946e+10  1.3693825645188358e+10  1.4458186945259892e+10  6.6821878428626528e+09  4.6520636448335762e+09  1.0159265281304165e+09  4.6965109758798704e+09  7.8356351065557508e+09  1.1711587921810362e+10  4.9551941293902807e+09  1.7542482198070538e+10  2.0789592017793530e+10  1.8725386475657703e+10  5.2454688738885131e+06  1.6427074549219470e+07  3.4091786806273825e+07  4.3374110317556068e+07  5.1570283741012119e+07  4.2576853722474113e+07  2.1350351894321751e+07  1.6216950199559873e+07  9.4615027730865628e+06  4.6085310057191700e+06  1.2213449147137141e+07  1.2379989976385392e+07  2.1892920637470230e+07  2.4506378722832367e+07  1.7227146822163679e+07  8.9628541254811175e+06  6.2556906449207561e+06  9.4351100196367651e+06  1.3555618562136274e+07  2.7069026658900186e+07  2.1695307067707606e+07  1.7150399236557107e+07  8.2831804656032929e+06  2.0219673196709494e+06  3.0135505442988882e+06  1.2383438257051963e+07  3.2058153410270058e+07  4.9880158516874984e+07  4.8056405818043754e+07  4.5849035989193760e+07  2.3256212636525739e+07  1.6471434339880437e+07  9.8529391719675679e+06  4.7466034559945893e+06  1.2431857257829783e+07  1.2732237641988987e+07  2.2435979735970225e+07  2.5419817535282407e+07  1.6693283625494735e+07  8.8913586324851383e+06  7.2288455530845486e+06  8.9734229536449052e+06  1.3818229217799626e+07  2.6801808901699059e+07  1.7901407573904786e+07  1.7663519065916762e+07  1.2348237547568757e+07  4.2067724244747395e+06  4.0797347689738243e+10  3.6120432688414444e+10  3.1634011496175686e+10  3.2483807491667183e+10  3.2719631502847683e+10  3.3876650319707752e+10  3.5060813453945992e+10  3.5720328589535164e+10  3.4904896101971802e+10  3.2300922639788948e+10  3.4378520189830376e+10  3.4996848213242165e+10  3.2780171613604610e+10  3.3265052158176468e+10  3.3538789457874165e+10  3.4493474526988106e+10  3.1849984363740158e+10  3.2751617980735329e+10  3.1897709843368477e+10  3.2243681112572853e+10  3.2637967473274391e+10  3.1847155471953999e+10  3.0946324953878613e+10  3.0763723484280125e+10  2.8901542686931427e+10  3.1238482056943340e+10  3.0991675904584141e+10  2.9792431750789162e+10  2.9931612034741959e+10  2.8224048082833054e+10  3.0617675132380219e+10  2.8671280051753201e+10  2.8318650895241409e+10  2.8132296932149704e+10  2.8800199037513611e+10  2.7911168063308548e+10  2.8279521740315739e+10  2.7424411203182388e+10  2.7759959722322796e+10  2.8380032673466671e+10  2.8591742948551506e+10  2.8292707125223949e+10  2.6600631957581264e+10  2.5759479824212246e+10  2.6600863289438782e+10  2.7119444659501389e+10  2.4515724607025078e+10  2.7810585257680878e+10  2.4646119466263695e+10  2.4676463582319111e+10  2.6051901433969189e+10  2.5425863736054829e+10  2.5473309079556244e+10  2.2991084999708733e+10  2.5040072023845341e+10  2.4927358840763454e+10  2.4373302427064396e+10  2.4023143918050713e+10  2.4361776789529453e+10  2.4830401400759098e+10  2.2621443719759842e+10  2.2573940408240219e+10  2.4270369363572517e+10  2.2801356032411621e+10  2.2967293663612282e+10  2.3182372028193943e+10  2.2089418115002792e+10  2.1878708922431824e+10  2.1093203849791981e+10  2.1380071677746876e+10  2.1711684466770409e+10  2.1146137257791992e+10  2.0659101501185127e+10  2.0312180500563286e+10  2.1181991721388878e+10  2.0256180230258972e+10  2.0071803311315025e+10  1.9901283318357304e+10  2.0903980962723846e+10  2.0603929696654381e+10  1.9708660233367233e+10  1.9297657024730824e+10  1.8958138297564850e+10  1.8953219118152328e+10  1.9328476745897820e+10  1.8132071967078266e+10  1.8624706404322544e+10  1.8257062708794960e+10  1.8004283946814133e+10  1.8878664758389526e+10  1.6988523183650888e+10  1.8093570478894310e+10  1.7701218656107315e+10  1.7665974663037136e+10  1.7141524069445559e+10  1.6965510389612314e+10  1.5701741443860250e+10  1.6827733798637049e+10  1.6946150939277550e+10  1.6075775301530640e+10  1.5670043331436144e+10  1.6220362947122528e+10  1.6232974714247337e+10  1.5290778208171169e+10  1.5311675650546036e+10  1.5045667678161644e+10  1.5441192414340849e+10  1.5741009555208973e+10  1.4750983785291002e+10  1.4612076904007406e+10  1.4886140537300228e+10  1.3565405424588568e+10  1.4217704861876120e+10  1.3773315946049067e+10  1.3939222568438061e+10  1.3598928553477367e+10  1.3508096560914089e+10  1.3433116769429979e+10  1.3976923008681753e+10  1.3224555815598764e+10  1.2503381870671141e+10  1.3215633658360373e+10  1.3065138343059465e+10  1.2500570447346886e+10  1.1865501051918102e+10  1.2287093640771744e+10  1.2812949329461653e+10  1.1763050304955830e+10  1.1804788843226412e+10  1.2688887018633184e+10  1.1257019651099394e+10  1.1386750037582991e+10  1.1417947904170546e+10  1.1558112867108767e+10  1.0961721316694748e+10  1.0651909000112118e+10  1.0875057184564707e+10  1.0264575982999115e+10  1.1047697819390266e+10  1.1109790662948198e+10  1.0357674660914612e+10  1.0396096449399412e+10  9.9258745206278877e+09  9.6948636801225681e+09  9.9602402737990189e+09  9.5882033437250309e+09  9.5881591485900803e+09  9.3254387199863491e+09  8.7485627320761414e+09  9.5124284001702976e+09  9.2349764551657143e+09  9.3212941452982368e+09  8.7670908376240120e+09  8.5670537774413300e+09  8.8898794731421509e+09  8.1514969760884466e+09  8.4156053682158909e+09  8.3581754633971958e+09  7.8320772569374638e+09  8.2500411637707014e+09  7.9358473149641581e+09  7.8115893860877733e+09  7.6968341468425531e+09  7.8000547592334290e+09  7.3596656713722734e+09  7.4377406063341417e+09  7.2478201245202284e+09  6.7778605650647268e+09  6.9519486511732712e+09  6.9679783859771500e+09  6.6857868172328701e+09  7.1511786706830835e+09  6.8016671290495367e+09  6.4851312588096800e+09  6.4165060025036106e+09  6.5327057393117819e+09  6.5057192689081993e+09  6.2957888764172287e+09  6.1510594189870539e+09  5.8213686691061859e+09  5.6189070144179974e+09  5.3693167757757292e+09  5.4082647876081247e+09  5.4573998744585247e+09  5.4137784748076878e+09  5.4793802460345087e+09  5.1874506440667734e+09  5.0502688049527445e+09  5.0034008307616444e+09  5.0463451315225420e+09  4.8213635724694080e+09  4.6638664376794920e+09  4.9355448135989008e+09  4.7760844890178728e+09  4.5915350131579199e+09  4.4058816628965511e+09  4.5337471811988726e+09  4.1887230055792480e+09  4.0682179730077496e+09  3.9373219673840499e+09  4.1990179412545328e+09  4.0611574527230244e+09  3.9348787380880904e+09  3.6481706304370675e+09  3.5664432894276109e+09  3.7373870014636960e+09  3.5782584867215204e+09  3.4537630814550838e+09  3.5338149742902131e+09  3.2892444836284876e+09  3.4503744901599441e+09  3.2358020331001182e+09  3.0396931780478559e+09  3.0722527308843937e+09  2.9124353534385061e+09  2.9151476699561381e+09  3.0060831505436912e+09  2.8266427054381409e+09  2.7094167152965450e+09  2.5429774577242579e+09  2.4844997620716791e+09  2.5148282870824313e+09  2.4527577017369609e+09  2.3496009237338567e+09  2.1955861861310353e+09  2.2526620412635942e+09  2.2306308916194062e+09  2.1822842506735015e+09  2.1406653689877632e+09  1.9109644293157303e+09  1.8805963427253816e+09  1.7298788498391535e+09  1.9002959794641137e+09  1.7692704058330197e+09  1.6904832074467957e+09  1.6539483485907445e+09  1.6691783743551347e+09  1.6518869940138125e+09  1.4837562644016154e+09  1.4665806058100221e+09  1.4062794922881596e+09  1.3621850075365491e+09  1.3211095625479014e+09  1.2895887313842115e+09  1.2399307959351156e+09  1.2458366057274840e+09  1.1535849676917572e+09  1.1241917658110538e+09  1.1214799069068563e+09  1.0415073714614009e+09  9.7537908568339455e+08  9.3504246768288112e+08  9.2164595725429106e+08  8.3729669196288931e+08  8.3224027586922741e+08  7.8511892825012636e+08  7.6529185686184943e+08  7.2692469675981641e+08  6.9328502469381297e+08  6.6688463868756938e+08  6.2712754053012097e+08  5.6124761699267685e+08  5.4986469049422109e+08  5.2050129406731385e+08  5.0384806252615678e+08  4.6507775863448554e+08  4.5411716763770682e+08  4.0303327452722919e+08  3.9467485112695646e+08  3.6793134590955514e+08  3.4389304840616304e+08  3.3325224147350264e+08  2.8912056646605551e+08  2.6440715389660758e+08  2.5993687971957076e+08  2.2686748314047059e+08  2.1752437242373514e+08  1.9338276041134733e+08  1.7984040533555833e+08  1.6317063762892774e+08  1.4782295582355902e+08  1.3309679084802978e+08  1.1945519576336122e+08  1.0602073520721464e+08  9.1475018489478573e+07  7.8572915796487629e+07  6.8291822178863421e+07  6.1843635119032264e+07  5.1360889359883472e+07  4.2336769329558611e+07  2.9992718410169512e+07  2.4353508020702090e+07  1.4864378239629196e+07  1.2549227627432298e+07  9.5753834053804874e+06  8.2623430289396215e+06  4.2164191708275983e+06  2.9092214843487171e+06  1.8928830209712135e+06  3.8456755189501366e+10  3.6875829830727959e+10  3.4531487494916389e+10  3.2754572886141685e+10  3.3445612988501919e+10  3.4668298159515999e+10  3.5258351345029892e+10  3.3942986706407501e+10  3.5104519449354836e+10  3.2892087529367901e+10  3.4683909269897934e+10  3.3077381466460770e+10  3.4487901961674408e+10  3.4357330748393265e+10  3.3499466414489658e+10  3.1384924385023373e+10  3.3322803015320255e+10  3.0918730595616756e+10  2.9463202496510433e+10  3.1226393860226292e+10  3.3256800544838993e+10  3.2242277051017296e+10  3.0868353637235748e+10  2.8629174788047798e+10  3.0820161645610760e+10  3.2090130925276524e+10  2.9494239384669945e+10  2.8587890007690834e+10  3.0361887082125397e+10  2.9372235350589130e+10  3.0411812637119549e+10  3.0713811926672962e+10  2.8617342981092140e+10  3.1124612498990650e+10  2.8206122582589794e+10  2.7332953303605675e+10  2.8358101815462738e+10  2.7398203950650673e+10  2.7629574025371052e+10  2.7617438230591011e+10  2.8101999566917095e+10  2.6208199556189365e+10  2.6996102878589554e+10  2.6475107995124222e+10  2.6458563221062218e+10  2.6176522343092804e+10  2.7558642716963486e+10  2.5608284856938889e+10  2.6394259794496761e+10  2.7280091392810146e+10  2.4649155314291306e+10  2.5932768418701580e+10  2.5576863563847706e+10  2.5818471616657310e+10  2.5663567349197514e+10  2.3874320122381390e+10  2.2718286195410004e+10  2.4155975140325748e+10  2.3740111561049171e+10  2.3417796885559818e+10  2.3398254496532467e+10  2.4297129270030563e+10  2.4437964767798435e+10  2.3438993046925514e+10  2.2941946319983559e+10  2.1893447653553028e+10  2.1654546993533531e+10  2.2540579812526249e+10  2.1092544111537296e+10  2.1276521548445572e+10  2.1538848579195110e+10  2.1042026860887222e+10  1.9856388167656078e+10  2.1091533169139938e+10  2.0534426331004780e+10  2.0428462915900330e+10  1.9685575563346638e+10  2.0811264573082275e+10  1.8650551006698563e+10  1.9851876735137791e+10  2.0808296449607681e+10  1.9358604245114944e+10  1.9338880055444126e+10  1.8740626120772171e+10  1.9259260282519566e+10  1.8810908857985390e+10  1.8674660339190624e+10  1.8134410491263447e+10  1.7237924691209179e+10  1.7456130057409016e+10  1.8011370423700611e+10  1.8479365878858910e+10  1.7081376122470001e+10  1.7792480268597435e+10  1.7231709402141521e+10  1.6660883794901278e+10  1.7023357912116280e+10  1.6720486205562466e+10  1.6804311678078379e+10  1.6401463703090855e+10  1.5764558783017467e+10  1.6260115368906803e+10  1.5767458206624523e+10  1.6367892843592630e+10  1.5487398849002893e+10  1.5570468400831049e+10  1.5811835365531149e+10  1.5002005613441656e+10  1.5092783583180719e+10  1.4418399842572823e+10  1.4808418778294022e+10  1.4077950006587503e+10  1.3746819140420551e+10  1.4833270025603704e+10  1.4451036388997206e+10  1.3780180066517962e+10  1.3802561189330914e+10  1.3277292496354084e+10  1.3407690881318645e+10  1.3282779342594229e+10  1.3670016247846951e+10  1.3255448741162632e+10  1.2904987971025808e+10  1.2420993767085779e+10  1.2980681276920584e+10  1.1683630729729218e+10  1.2062459473919725e+10  1.2246077061605593e+10  1.2200117040081242e+10  1.1568577692385921e+10  1.2056528009248055e+10  1.1705245993193192e+10  1.1733836996723211e+10  1.1765803972613611e+10  1.1093600203866602e+10  1.0976858142020620e+10  1.0875710279308681e+10  1.1198170943121656e+10  1.0155968709050213e+10  1.0517510980851076e+10  1.0047081963509010e+10  9.9284305008905888e+09  1.0208094178715187e+10  1.0019248531236412e+10  9.7619305988296738e+09  9.9600014354956722e+09  9.2275874859260578e+09  9.4491141722887535e+09  9.3055041690524426e+09  9.2324248449984055e+09  9.3789428684041061e+09  8.9790702662868652e+09  9.0760697864574947e+09  8.9912961158219757e+09  8.6158668866379738e+09  8.6634606879265270e+09  8.4185567905387335e+09  8.4115789166547260e+09  8.1657813070567951e+09  7.7170784527577076e+09  7.8090632673421307e+09  7.5931203145962563e+09  7.6194273785609922e+09  7.6077617847975483e+09  7.1530813581631508e+09  7.3752446714478502e+09  7.2460789748821039e+09  7.3235129364781914e+09  7.0241085857261953e+09  6.9951196588636208e+09  6.7946722880075331e+09  6.4617242672863045e+09  6.3643970736252985e+09  6.6933894424055891e+09  6.6939081924458103e+09  6.2400508623170748e+09  5.9912003132582588e+09  5.9518506101817751e+09  6.3810865620626183e+09  5.8365971851443567e+09  5.6133140946035023e+09  5.6424882424343109e+09  5.3679886302142868e+09  5.7618157555649433e+09  5.5587070113828287e+09  5.1793170194974136e+09  5.3984272725972157e+09  5.2704643251937723e+09  4.8425403387648525e+09  4.9691046523615828e+09  4.6509633247365170e+09  4.6721481332632303e+09  4.9539551115677691e+09  4.6538716186683807e+09  4.3424495038854675e+09  4.4106155608511353e+09  4.3206140872798119e+09  4.3011675300502071e+09  3.9480887579055114e+09  4.0851016148799338e+09  3.8045474377787714e+09  4.0026033899502106e+09  4.0144135678540463e+09  3.9179051018311048e+09  3.8458755242777200e+09  3.4432090307998614e+09  3.5630840913460584e+09  3.7297429175559134e+09  3.4827078047811584e+09  3.1103766893827190e+09  3.3059217191644816e+09  3.3308568484721360e+09  3.1889004825263038e+09  2.9964060485033255e+09  3.0864204756556592e+09  2.8828586396772952e+09  2.8705160865392604e+09  2.8103408796837401e+09  2.6048783519845333e+09  2.6198665821921163e+09  2.5200494207613096e+09  2.4714352870204129e+09  2.4124419672292023e+09  2.3864200108983054e+09  2.1515311273100147e+09  2.1974651040369658e+09  2.2755432708616748e+09  2.2103513007142067e+09  2.0042222560712488e+09  2.0357511187308404e+09  1.9107796368742301e+09  1.9596901964765520e+09  1.7713988452143066e+09  1.7287674486269481e+09  1.7318612281271768e+09  1.6752830115553067e+09  1.6397536978162315e+09  1.4519973305877042e+09  1.5097370100920918e+09  1.4058022749560316e+09  1.3913085954884708e+09  1.3759970515640049e+09  1.3286507074184582e+09  1.2464267797683485e+09  1.2476035450078475e+09  1.2504603265960319e+09  1.1249808341488738e+09  1.0670942717910441e+09  1.0634425550661812e+09  1.0369806245021811e+09  1.0252389908170089e+09  9.4747719664639521e+08  8.8823313841068339e+08  9.0188882962807155e+08  7.9774742185926187e+08  7.9907559965927947e+08  7.1924468583539879e+08  7.1617649586476243e+08  6.8931058583780456e+08  6.3858363810092139e+08  6.0976848162184656e+08  5.8881107748407340e+08  5.7642761831304967e+08  4.8851554777859622e+08  4.8236381131302184e+08  4.6542360084284383e+08  4.6322893041314441e+08  4.3005210120877659e+08  3.9128620507777667e+08  3.7949068194834912e+08  3.4006356962301385e+08  3.1521145763905334e+08  3.0464672998813963e+08  2.8188497224259019e+08  2.5006275166190884e+08  2.4042988245862702e+08  2.1085397520184344e+08  2.0275040566309428e+08  1.7888026583221877e+08  1.6252952001639724e+08  1.4419554532882857e+08  1.3348372879322155e+08  1.1831806019791275e+08  1.0561156810632949e+08  9.1568451052343816e+07  7.9686492426265478e+07  6.9994331676707178e+07  5.7541593265072159e+07  4.9414268609537832e+07  3.5401031952774428e+07  3.5433507370430008e+07  2.4488383607936610e+07  2.3821871268109020e+07  1.6441106542732343e+07  4.4441399721099166e+06  9.1793945012234692e+06  -6.0110114651571400e+05  3.2387685226496048e+06  9.7193151029336790e+05  3.2127753884629940e+10  2.5695042366682194e+10  2.4662998147374329e+10  2.7236623459493561e+10  2.6820435495685051e+10  2.6468581212524902e+10  2.7415425013969013e+10  2.8220789802153660e+10  2.6492415657832287e+10  2.7097141065584831e+10  2.5181900377281696e+10  2.6064210898122128e+10  2.5570811697604401e+10  2.5966620586084717e+10  2.6159843160000526e+10  2.6827030204373226e+10  2.7501613314030556e+10  2.5024566279367775e+10  2.5821486892535324e+10  2.3602254205714462e+10  2.2556448723581604e+10  2.1881868928377823e+10  2.4249681239908161e+10  2.7610283596668198e+10  2.4562314497467754e+10  2.6567330426272015e+10  2.6193234043458263e+10  2.3966658326599140e+10  2.3346502323650177e+10  2.2726403263630249e+10  2.4204520427992306e+10  2.2570893281843437e+10  2.5091774991614071e+10  2.1478911773905235e+10  2.0773941863136089e+10  2.3052686534836647e+10  2.2762323512332470e+10  2.3035159808324062e+10  2.1986008205607315e+10  2.1612327770963600e+10  2.1109056659232368e+10  2.2186286096511761e+10  2.1329177506801983e+10  2.2428059479782959e+10  2.1143771102245647e+10  2.0868191420015079e+10  1.9818724805309372e+10  2.1500859228068260e+10  2.0180674648142654e+10  2.0417677704199986e+10  2.1034543805401520e+10  1.9384921513292976e+10  1.9444882003917370e+10  2.0002231337988319e+10  1.8775365720904182e+10  2.0363241659966774e+10  2.0123370186078659e+10  1.9885009964592533e+10  1.9062569185192039e+10  1.9046717656529682e+10  1.8477674687361355e+10  1.7914854858863560e+10  1.8349103366760845e+10  1.8239507082122013e+10  1.8345176591710342e+10  1.8498524640264168e+10  1.7854760973114510e+10  1.6572727236603031e+10  1.6636350805942593e+10  1.7524914436682999e+10  1.7036112143046129e+10  1.7086860949630947e+10  1.6425900095807663e+10  1.6526329644611198e+10  1.5773046974257858e+10  1.6107318633971270e+10  1.5981211901267195e+10  1.6447762879747379e+10  1.6460779497316620e+10  1.5660373101003807e+10  1.5369783704168564e+10  1.5695826597258749e+10  1.6417019662323475e+10  1.5060384487975573e+10  1.4676944322476982e+10  1.4474233666325409e+10  1.5201669118129091e+10  1.4119461782623995e+10  1.4479662712399382e+10  1.4255879007906652e+10  1.3728762442341896e+10  1.4224648300203363e+10  1.4753155744308477e+10  1.3974257513019953e+10  1.3911942064578058e+10  1.4159288781435246e+10  1.3525220967956060e+10  1.3453532225819254e+10  1.2252811708063864e+10  1.2986128892172743e+10  1.2752194881734211e+10  1.2595229193638363e+10  1.2925207385806273e+10  1.4265622429624666e+10  1.2330001676136307e+10  1.1221101197945623e+10  1.1721110619182903e+10  1.2611809112836309e+10  1.2049977951439039e+10  1.1709026380461216e+10  1.1477802459731972e+10  1.16852475830040