<?xml version="1.0"?>
<VTKFile type="UnstructuredGrid"  version="0.1"  >
<UnstructuredGrid>
<Piece  NumberOfPoints="1746" NumberOfCells="5283">
<Points>
<DataArray  type="Float64"  NumberOfComponents="3"  format="ascii">20 -4.898587196589413e-15 200  20 -4.898587196589413e-15 0  18 -4.408728476930472e-15 200  18 -4.408728476930472e-15 0  18.47759065022574 7.653668647301796 200  14.14213562373095 14.14213562373095 200  7.653668647301797 18.47759065022574 200  1.224646799147353e-15 20 200  -7.653668647301794 18.47759065022574 200  -14.14213562373095 14.14213562373095 200  -18.47759065022574 7.653668647301798 200  -20 2.449293598294707e-15 200  -18.47759065022574 -7.653668647301792 200  -14.14213562373095 -14.14213562373095 200  -7.653668647301807 -18.47759065022573 200  -3.673940397442059e-15 -20 200  7.6536686473018 -18.47759065022573 200  14.14213562373096 -14.14213562373094 200  18.47759065022574 -7.653668647301775 200  20 -4.898587196589413e-15 8  20 -4.898587196589413e-15 16  20 -4.898587196589413e-15 24  20 -4.898587196589413e-15 32  20 -4.898587196589413e-15 40  20 -4.898587196589413e-15 48  20 -4.898587196589413e-15 56  20 -4.898587196589413e-15 64  20 -4.898587196589413e-15 72  20 -4.898587196589413e-15 80  20 -4.898587196589413e-15 88  20 -4.898587196589413e-15 96  20 -4.898587196589413e-15 104  20 -4.898587196589413e-15 112  20 -4.898587196589413e-15 120  20 -4.898587196589413e-15 128  20 -4.898587196589413e-15 136  20 -4.898587196589413e-15 144  20 -4.898587196589413e-15 152  20 -4.898587196589413e-15 160  20 -4.898587196589413e-15 168  20 -4.898587196589413e-15 176  20 -4.898587196589413e-15 184  20 -4.898587196589413e-15 192  18.47759065022574 7.653668647301796 0  14.14213562373095 14.14213562373095 0  7.653668647301797 18.47759065022574 0  1.224646799147353e-15 20 0  -7.653668647301794 18.47759065022574 0  -14.14213562373095 14.14213562373095 0  -18.47759065022574 7.653668647301798 0  -20 2.449293598294707e-15 0  -18.47759065022574 -7.653668647301792 0  -14.14213562373095 -14.14213562373095 0  -7.653668647301807 -18.47759065022573 0  -3.673940397442059e-15 -20 0  7.6536686473018 -18.47759065022573 0  14.14213562373096 -14.14213562373094 0  18.47759065022574 -7.653668647301775 0  16.44381823756682 7.321259575364403 200  12.04435091445945 13.37660685859309 200  5.562305898749054 17.11901729331276 200  -1.88151233881776 17.90139411662892 200  -8.999999999999996 15.5884572681199 200  -14.56230589874905 10.58013454126452 200  -17.6066568132085 3.742410434719668 200  -17.6066568132085 -3.742410434719671 200  -14.56230589874905 -10.58013454126452 200  -8.999999999999993 -15.5884572681199 200  -1.88151233881776 -17.90139411662892 200  5.562305898749051 -17.11901729331277 200  12.04435091445944 -13.3766068585931 200  16.44381823756681 -7.321259575364417 200  16.44381823756682 7.321259575364403 0  12.04435091445945 13.37660685859309 0  5.562305898749054 17.11901729331276 0  -1.88151233881776 17.90139411662892 0  -8.999999999999996 15.5884572681199 0  -14.56230589874905 10.58013454126452 0  -17.6066568132085 3.742410434719668 0  -17.6066568132085 -3.742410434719671 0  -14.56230589874905 -10.58013454126452 0  -8.999999999999993 -15.5884572681199 0  -1.88151233881776 -17.90139411662892 0  5.562305898749051 -17.11901729331277 0  12.04435091445944 -13.3766068585931 0  16.44381823756681 -7.321259575364417 0  18 -4.408728476930472e-15 8  18 -4.408728476930472e-15 16  18 -4.408728476930472e-15 24  18 -4.408728476930472e-15 32  18 -4.408728476930472e-15 40  18 -4.408728476930472e-15 48  18 -4.408728476930472e-15 56  18 -4.408728476930472e-15 64  18 -4.408728476930472e-15 72  18 -4.408728476930472e-15 80  18 -4.408728476930472e-15 88  18 -4.408728476930472e-15 96  18 -4.408728476930472e-15 104  18 -4.408728476930472e-15 112  18 -4.408728476930472e-15 120  18 -4.408728476930472e-15 128  18 -4.408728476930472e-15 136  18 -4.408728476930472e-15 144  18 -4.408728476930472e-15 152  18 -4.408728476930472e-15 160  18 -4.408728476930472e-15 168  18 -4.408728476930472e-15 176  18 -4.408728476930472e-15 184  18 -4.408728476930472e-15 192  -20 -3.577002909285701e-09 157.1522859688613  -7.254555057659097 18.63790307184241 196.2464662207711  14.59854400123663 13.67049790768274 157.1291993111093  14.59815222504264 13.67091626828584 74.63377681723654  14.66458264151024 -13.5996329343963 74.51265824757157  -7.336813475541644 18.60567569386048 115.8784598384242  -7.336815197136739 18.60567501498033 33.3308368277247  -16.53612958952723 11.24972969445763 12.77115904541336  4.390739930502511 19.51208350901284 12.77155373297194  -7.336813815372425 -18.60567555985432 33.33083653590681  4.390613651326113 -19.51211192477095 12.77116787833458  -16.53625057924966 -11.24955184797445 12.77155704856215  -7.336813377815482 -18.60567573239703 115.8784602755849  14.59855243317726 -13.67048890331923 157.1301935542192  -7.252993780083373 -18.63851070300607 196.2461957106742  14.59485626348152 -13.6744349297627 196.2314928265539  -19.99999996285534 0.00121892837811112 196.2375338524816  14.59589557168212 13.67332558160414 196.234232059939  -20 -6.917776781684446e-11 74.60463432800341  19.58171001031401 -4.068984280132825 178.6286116816276  4.403115200139329 -19.50929461908611 177.7914132649166  -16.53374078505016 -11.25324022905264 177.7911735258169  -7.336813815073833 -18.60567555997206 157.1522855029262  -16.53376376960875 11.25320645908413 177.7911064063189  4.403113723336149 19.50929495239049 177.7913839176151  -7.336813485621496 18.60567568988567 157.1522850126818  19.58171010291322 4.068983834505414 178.6285906416217  19.58252678125401 -4.065051643149114 93.90511220268762  19.57868749761984 -4.083502892192511 53.22971628024598  4.403205398312744 -19.50927426175227 53.96758835519088  14.61785401102171 -13.64984776883817 33.35164968927933  19.5473156437928 -4.231128823604091 12.40944767788517  19.58213715875266 4.066928115395991 93.90668575976926  4.40326514569461 19.5092607767878 53.96767048800787  19.57891179226929 4.082427345408441 53.23238797597054  14.61675941947295 13.65101989132126 33.35249188423647  19.54731122125273 4.231149255165441 12.40935463233918  -20 -6.7520857564976e-08 33.33082561889294  -16.53384800272735 11.25308269865234 53.96772144118037  -7.33681320527131 18.60567580043672 74.60463464023573  -16.53384800267747 -11.25308269872563 53.96772143983446  -7.336811259945716 -18.60567656754072 74.60463190036347  4.403399558754314 19.50923043910144 95.24133968208801  14.59950209040939 13.66947470505476 115.8800457054155  19.5821408120063 4.066910525049366 137.9673094510583  4.403383288161076 19.50923411150586 136.5156205536882  -16.5338480029885 11.25308269826865 136.5153729923047  4.403408530170225 -19.50922841417426 95.24132645933622  14.59947019005538 -13.66950877572725 115.8810197839813  -16.53384800091726 -11.25308270131186 136.515372994472  4.403399779043195 -19.50923038938037 136.5156451596747  19.58213930520597 -4.066917780273809 137.9673072869363  -20 -2.564386339335067e-12 115.8784601036286  -16.53384800257306 -11.25308269887905 95.24154721444071  -16.53384800322139 11.25308269792647 95.24154721278708  19.4498891072158 -4.658520550239994 196.5377854653948  2.964768413093922 -19.77903304655515 196.9307279522763  17.95651372119032 -8.807020777805848 167.177721036324  19.55203812871638 -4.209252310472845 156.6225318468562  -1.572187114797752 -19.93810993238988 188.0399403433447  -12.45148245756111 -15.65121671337561 188.1574350617583  -7.336596612718528 -18.60576120835283 177.789193203755  9.951887834660454 -17.34819669378744 167.467258928221  -1.53477259706594 -19.9410248752489 167.4707370700607  4.403102254316884 -19.50929754086573 157.1521634578859  -12.48868202734149 -15.62154989813615 167.4707579814557  -19.11382969677387 -5.887403020239496 167.4707499977363  -16.53384799007402 -11.25308271724354 157.1522860143322  14.61647106773021 -13.65132863593159 177.800524435766  9.973239995051376 -17.33593043367179 188.158973585095  17.88308248845543 -8.955186246589108 188.0121838158676  2.963942640745907 19.77915680766924 196.9299689925445  19.44980170671416 4.658885442839179 196.5366030425915  -12.45230274478316 15.65056409054529 188.1553686943042  -1.573328807700406 19.93801987316845 188.0400781013074  -7.336615195397576 18.60575388084722 177.7891673837919  -19.11382986046183 5.887402488816082 167.4707494732925  -12.48868210994937 15.62154983209511 167.4707580290736  -16.53384798945692 11.25308271815024 157.1522860082947  -1.534773335176115 19.94102481843981 167.4707243037771  9.951732968301219 17.34828553280198 167.4671008528011  4.403130936153249 19.50929106756804 157.1521191769911  17.95649356257224 8.807061878816443 167.1774251543984  19.55208201754406 4.209048441064819 156.6231751919196  14.61641314815322 13.65139065013135 177.8004959730915  17.88316288639807 8.955025693908128 188.0112147861584  9.972690905389053 17.33624630955532 188.16043296406  -19.99999999999202 -1.786325413565463e-05 177.7881802467649  -19.12414457626027 5.853810231489801 188.0312509605919  -17.23058669885052 10.15415589861588 196.926470979522  -19.12398864137008 -5.854319639782918 188.0337201064418  -17.22943470276934 -10.1561104672511 196.9291930797314  17.94674315331555 -8.826913967458921 84.71261320140235  17.92312136478943 -8.874780027867102 64.43065115907906  9.951344005844815 -17.34850865283055 64.28460399877943  14.61182535496999 -13.65630110226983 53.95516387168458  17.89692467759101 -8.927490525597547 43.69454235412724  19.58281265613158 -4.063674257965658 34.39187353017358  9.949319333956087 -17.34966987556154 43.64969108611599  -1.534774998660492 -19.94102469040863 43.6492687753165  4.403445140994931 -19.50922015074534 33.33088794299937  17.47734609455951 -9.723290260554048 3.725480716857882  -1.535193325653587 -19.94099248916334 23.01412252690244  -12.48859761488027 -15.62161738148796 23.01411122607538  -7.343574506721506 -18.60300818320064 12.78337696610998  10.27960862208181 -17.15603819583127 3.681337769892127  -2.334858233296958 -19.863
[...]
<PointData  Vectors="f_1148"> 
<DataArray  type="Float64"  Name="f_1148"  NumberOfComponents="3" format="ascii">-5.9877872306122853e+01 -1.7107011000055705e-01 3.6419020701017807e+01  0.0000000000000000e+00 0.0000000000000000e+00 0.0000000000000000e+00  -5.9871020232682163e+01 -1.7147463615383973e-01 3.5555389407997247e+01  0.0000000000000000e+00 0.0000000000000000e+00 0.0000000000000000e+00  -5.9826504088202292e+01 -1.4434033589561895e-01 3.5710341410017058e+01  -5.9675033694513601e+01 -9.5284970529802462e-02 3.3753842858233099e+01  -5.9554755922339837e+01 -1.5546391427236654e-02 3.0923612095701394e+01  -5.9499193101203367e+01 1.8023653099374981e-02 2.7647048304317810e+01  -5.9449492144734087e+01 -4.0654140671372976e-02 2.4408673638470560e+01  -5.9350659534465159e+01 -1.3384679757375553e-01 2.1689185598276151e+01  -5.9233630364779124e+01 -1.8150019268114601e-01 1.9873312668463754e+01  -5.9174494690398276e+01 -1.6961119497839625e-01 1.9238559282794299e+01  -5.9224121909010364e+01 -1.5367932295024261e-01 1.9852675263716637e+01  -5.9340647341755812e+01 -2.0120061192307387e-01 2.1642763340413804e+01  -5.9441725250758353e+01 -2.9614578505470357e-01 2.4345463922479478e+01  -5.9495193235018512e+01 -3.5960900323070166e-01 2.7577819148875932e+01  -5.9545103003912267e+01 -3.3510313536998426e-01 3.0857352108956491e+01  -5.9667822595595027e+01 -2.4989334052674597e-01 3.3703581458333794e+01  -5.9823417333056184e+01 -1.9859907433129176e-01 3.5683686907481842e+01  -9.3861735147267555e-01 2.0389257802504997e-03 2.7950876255399222e+00  -1.7840619274140777e+00 -3.5072748085470075e-03 5.4503313314466268e+00  -2.4968586561333495e+00 -3.0650593608386664e-03 8.0023856143687251e+00  -3.3283618127769494e+00 -2.9044872657916733e-03 1.0498294304047858e+01  -4.4184705221978335e+00 -5.6228854787889748e-03 1.2842870592976492e+01  -5.7868610616676674e+00 -7.2573374599980058e-03 1.5084283447931837e+01  -7.3911738269546330e+00 -9.8653030536681105e-03 1.7182132196525977e+01  -9.2086249582001241e+00 -1.6203825525692397e-02 1.9229632679921661e+01  -1.1216657170296894e+01 -3.2948043391998562e-02 2.1157322713413013e+01  -1.3495484449575576e+01 -3.3011828673944574e-02 2.2981907599108478e+01  -1.5949628087274503e+01 -2.6647442794261185e-02 2.4666840889339941e+01  -1.8545146878278896e+01 -2.7610619408951272e-02 2.6210386154051125e+01  -2.1271540738595824e+01 -3.0106465233008150e-02 2.7678567392282993e+01  -2.4102725738646459e+01 -3.3670625344434067e-02 2.9016091909879240e+01  -2.7047681643290701e+01 -4.0061530782379978e-02 3.0240992774027433e+01  -3.0079420104938006e+01 -4.9506321186385781e-02 3.1343209606523754e+01  -3.3184541628943137e+01 -6.1287026687019075e-02 3.2348070428937078e+01  -3.6353740170112431e+01 -7.4405728874192723e-02 3.3245321292232184e+01  -3.9580878460383808e+01 -8.8048053857634812e-02 3.4031105064012230e+01  -4.2861827124225464e+01 -1.0178518019395753e-01 3.4707766297670041e+01  -4.6194134125095211e+01 -1.1550711158251090e-01 3.5266332438909707e+01  -4.9563224160097434e+01 -1.2926687471017295e-01 3.5725952323819556e+01  -5.2974031006986557e+01 -1.4311848982749983e-01 3.6086583162187985e+01  -5.6417716961524874e+01 -1.5707615418986637e-01 3.6322245627461115e+01  0.0000000000000000e+00 0.0000000000000000e+00 0.0000000000000000e+00  0.0000000000000000e+00 0.0000000000000000e+00 0.0000000000000000e+00  0.0000000000000000e+00 0.0000000000000000e+00 0.0000000000000000e+00  0.0000000000000000e+00 0.0000000000000000e+00 0.0000000000000000e+00  0.0000000000000000e+00 0.0000000000000000e+00 0.0000000000000000e+00  0.0000000000000000e+00 0.0000000000000000e+00 0.0000000000000000e+00  0.0000000000000000e+00 0.0000000000000000e+00 0.0000000000000000e+00  0.0000000000000000e+00 0.0000000000000000e+00 0.0000000000000000e+00  0.0000000000000000e+00 0.0000000000000000e+00 0.0000000000000000e+00  0.0000000000000000e+00 0.0000000000000000e+00 0.0000000000000000e+00  0.0000000000000000e+00 0.0000000000000000e+00 0.0000000000000000e+00  0.0000000000000000e+00 0.0000000000000000e+00 0.0000000000000000e+00  0.0000000000000000e+00 0.0000000000000000e+00 0.0000000000000000e+00  0.0000000000000000e+00 0.0000000000000000e+00 0.0000000000000000e+00  0.0000000000000000e+00 0.0000000000000000e+00 0.0000000000000000e+00  -5.9824193556416766e+01 -1.1840483032269759e-01 3.4837600677945986e+01  -5.9681490890306577e+01 -5.9678524529665558e-02 3.2861309141141327e+01  -5.9555874092677826e+01 1.0678212932857393e-03 3.0045415453010520e+01  -5.9478723759960033e+01 1.2798783739450462e-02 2.6873360818017900e+01  -5.9395676754320085e+01 -5.5513286629584879e-02 2.3863126318161356e+01  -5.9285908267735309e+01 -1.3179453966017243e-01 2.1531409209837715e+01  -5.9196291890829215e+01 -1.6589743692621145e-01 2.0254752167498005e+01  -5.9189843444419672e+01 -1.6872950216071367e-01 2.0248229307311028e+01  -5.9275816863906236e+01 -2.0328125100466105e-01 2.1497529698658109e+01  -5.9386320693288425e+01 -2.8073448689940578e-01 2.3809136143006455e+01  -5.9471162352790657e+01 -3.5170189967085541e-01 2.6810634194992851e+01  -5.9548106362132245e+01 -3.5390125354544805e-01 2.9984919057945952e+01  -5.9674807723689050e+01 -2.8667330896938120e-01 3.2815543651784438e+01  -5.9821260222413535e+01 -2.2532562094943215e-01 3.4812409078812273e+01  0.0000000000000000e+00 0.0000000000000000e+00 0.0000000000000000e+00  0.0000000000000000e+00 0.0000000000000000e+00 0.0000000000000000e+00  0.0000000000000000e+00 0.0000000000000000e+00 0.0000000000000000e+00  0.0000000000000000e+00 0.0000000000000000e+00 0.0000000000000000e+00  0.0000000000000000e+00 0.0000000000000000e+00 0.0000000000000000e+00  0.0000000000000000e+00 0.0000000000000000e+00 0.0000000000000000e+00  0.0000000000000000e+00 0.0000000000000000e+00 0.0000000000000000e+00  0.0000000000000000e+00 0.0000000000000000e+00 0.0000000000000000e+00  0.0000000000000000e+00 0.0000000000000000e+00 0.0000000000000000e+00  0.0000000000000000e+00 0.0000000000000000e+00 0.0000000000000000e+00  0.0000000000000000e+00 0.0000000000000000e+00 0.0000000000000000e+00  0.0000000000000000e+00 0.0000000000000000e+00 0.0000000000000000e+00  0.0000000000000000e+00 0.0000000000000000e+00 0.0000000000000000e+00  0.0000000000000000e+00 0.0000000000000000e+00 0.0000000000000000e+00  -7.7415256891985051e-01 -3.2542939962896964e-04 2.5717847444326356e+00  -1.6422687718878533e+00 -4.4130749191641557e-03 5.2447912679089299e+00  -2.3647160178596316e+00 -4.1408863477798057e-03 7.8089771211782804e+00  -3.2062970244411524e+00 -5.0730896799865439e-03 1.0252374302883998e+01  -4.2991069944790574e+00 -7.1254044207488213e-03 1.2531389616654993e+01  -5.6742367501696256e+00 -8.4800580009817463e-03 1.4709583355078191e+01  -7.2796089983215824e+00 -1.1402708656051736e-02 1.6749366705132427e+01  -9.1044991549812160e+00 -1.7771559652721328e-02 1.8747854671595341e+01  -1.1121514746772114e+01 -3.7509654955635081e-02 2.0620430510745273e+01  -1.3404515905551968e+01 -3.4298720406250413e-02 2.2383989837540675e+01  -1.5864856287028802e+01 -2.6738522167740364e-02 2.4027961651332372e+01  -1.8465883642146064e+01 -2.7464264792837666e-02 2.5542212209955135e+01  -2.1197223757807169e+01 -2.9034481947920073e-02 2.6979810894400458e+01  -2.4037103196923283e+01 -3.2776390541769396e-02 2.8292958543376713e+01  -2.6985207186928481e+01 -3.9454240974572001e-02 2.9488735636511020e+01  -3.0024358602947689e+01 -4.9094984244667635e-02 3.0576072953211241e+01  -3.3134838599303663e+01 -6.0995663040976859e-02 3.1560150978431931e+01  -3.6309740547601642e+01 -7.4343826978355135e-02 3.2444937521492314e+01  -3.9543582147879398e+01 -8.8281382583087334e-02 3.3217656163047891e+01  -4.2829385719241181e+01 -1.0227191201129836e-01 3.3877323405561157e+01  -4.6167034478274225e+01 -1.1608540830072249e-01 3.4424090528465300e+01  -4.9541152695355905e+01 -1.2985494980098944e-01 3.4878168485364100e+01  -5.2957453179466860e+01 -1.4367114159986805e-01 3.5225165486081217e+01  -5.6406553790209607e+01 -1.5756115197401510e-01 3.5459931670091329e+01  -4.1097125328826387e+01 -9.3154406575244084e-02 1.7751349982434075e+01  -5.7852074396296388e+01 -7.0457461994568565e-02 2.4543581710574909e+01  -4.1578484740127976e+01 -3.2365108902715001e-01 3.2089356439114518e+01  -1.1630766834425343e+01 -6.3064932781516458e-01 2.0095643104726381e+01  -1.1581516262303323e+01 5.7091154328671812e-01 2.0074378087210050e+01  -2.4672888634172246e+01 -4.4245233248763854e-01 1.9232908637656561e+01  -1.9572913186411223e+00 -8.0727215609904068e-01 7.0240308832817231e+00  2.5801322022961931e-01 -3.8521728805178490e-01 2.3727214868275071e+00  -5.1508066513332129e-01 -1.0667399533426227e+00 3.4571051404522142e+00  -1.9558704231553814e+00 8.0304731346529301e-01 7.0188181959659639e+00  -5.1013551946819546e-01 1.0584393135354755e+00 3.4594092090472564e+00  2.6207589210444865e-01 3.8790090375370018e-01 2.3740451288633770e+00  -2.4689770099322605e+01 3.4314707021903079e-01 1.9198867251798962e+01  -4.1572814486243274e+01 1.2724411464232485e-01 3.2041351114620220e+01  -5.7846741993211339e+01 -2.5459234887579202e-01 2.4481004861284315e+01  -5.8061105088738493e+01 -1.9169881301050004e-01 3.3874013824700484e+01  -5.7582548949112770e+01 -1.6266589802919207e-01 1.9204807398265455e+01  -5.8067031865365323e+01 -1.3987843368198599e-01 3.3923387115040192e+01  -1.0454272550895318e+01 -1.8145733919322768e-02 1.0452164315701593e+01  -5.0668124098320952e+01 -9.3463614836528153e-02 3.5636063011907545e+01  -5.0064598647960274e+01 -5.3524528677284036e-02 2.8900844343555576e+01  -4.9853532816728851e+01 -5.5460202115164406e-02 2.0147137535104502e+01  -4.1243333548248955e+01 1.5709349873784748e-01 2.2897082933595900e+01  -4.9860761620024313e+01 -2.0504171321663986e-01 2.0185416148163515e+01  -5.0069688939924490e+01 -2.1196271287160168e-01 2.8969404183657012e+01  -4.1251443011427163e+01 -3.4944474276785337e-01 2.2962131453505826e+01  -5.0670509778069160e+01 -1.7442199760277782e-01 3.5650246707005095e+01  -1.7824971197708908e+01 1.3855199963817588e-01 2.5662406655778469e+01  -6.7792959212405828e+00 2.1622625989398755e-01 1.6357260135799752e+01  -6.0375233513530375e+00 8.3016921201853022e-01 1.3169498382174485e+01  -3.1020235296437551e+00 8.1360903141951113e-01 1.0005946021434287e+01  -1.4087638078407290e+00 2.6235006239773961e-01 4.2237509980104795e+00  -1.7826461966494488e+01 -1.9270271179263229e-01 2.5653027688722634e+01  -6.0404911546395113e+00 -8.5437010627372456e-01 1.3176442478587886e+01  -6.7870113222082331e+00 -2.3509132054898213e-01 1.6364903305503159e+01  -3.1039558579183115e+00 -8.2385114462208753e-01 1.0010076140137574e+01  -1.4135822683915240e+00 -2.6800375677846516e-01 4.2250403148884699e+00  -1.6836012563778540e+00 -2.7208975334891195e-03 5.3720053589131078e+00  -5.3878211105153726e+00 -3.2784352083820162e-01 8.8495738249453826e+00  -1.0719825985062789e+01 -5.5579372402292637e-01 1.3912025342990574e+01  -5.3863235822159794e+00 3.1466351218645011e-01 8.8393817737655880e+00  -1.0709397366101808e+01 5.2624722878177532e-01 1.3877287304918559e+01  -1.7539572561222617e+01 -5.6985075174450472e-01 2.0644600198955501e+01  -2.5313514756531877e+01 -4.5286545304702908e-01 2.7471815411571725e+01  -3.3947855841257713e+01 -1.6307967089552083e-01 3.2384849129062566e+01  -3.2999718091211186e+01 -4.9547746431295264e-01 2.6047946094040732e+01  -3.2628592082943563e+01 -2.6805530892345975e-01 1.7674150632407745e+01  -1.7543105506385388e+01 5.1144397357886451e-01 2.0637189649491841e+01  -2.5320178092940843e+01 3.7838840950947938e-01 2.7455945648128861e+01  -3.2617984952149776e+01 1.4149630665796759e-01 1.7667474648261614e+01  -3.2997848270749323e+01 3.6223338317483039e-01 2.5975877960201856e+01  -3.3948831634400101e+01 3.4238269979843250e-02 3.2372467009816987e+01  -2.4387845941309653e+01 -5.5069280248601457e-02 1.4443429551883096e+01  -1.6966348076048860e+01 2.0256334615195440e-01 1.3610690965746164e+01  -1.6962267653857616e+01 -2.7323108184147721e-01 1.3630418877883844e+01  -5.8365158314260242e+01 -1.5530848161720506e-01 3.6121377837945069e+01  -5.8203936774723147e+01 -3.1679506073463315e-01 2.8817786201845994e+01  -4.5804494452810957e+01 2.2195863167391869e-03 3.4238647784985851e+01  -4.1463295612270016e+01 -2.2018894522408544e-02 3.4204150986539744e+01  -5.4385390395785699e+01 -1.9628758675689051e-01 2.6706962438070455e+01  -5.4333845062038279e+01 -1.2803713201663261e-01 2.2153535106124270e+01  -4.9969321333835822e+01 -5.4074709003040261e-02 2.3952737798631606e+01  -4.5784254706222804e+01 7.3332727660675431e-02 3.0757392648863426e+01  -4.5646326720509983e+01 7.2278832014781177e-02 2.5906149598458910e+01  -4.1406992422014845e+01 1.8930558722032342e-01 2.7743930720946985e+01  -4.5524747263688717e+01 3.8155488057075401e-02 2.1365306033803080e+01  -4.5442569150731046e+01 -5.1739005706952911e-02 1.8659986062361970e+01  -4.1130259972039944e+01 5.2816123494975047e-02 1.9147111491578389e+01  -5.0202200999235004e+01 -2.9457155157408869e-02 3.3323048795937638e+01  -5.4521984915661164e+01 -1.5376228767268421e-01 3.1662802035965090e+01  -5.4627160397807685e+01 -1.0123428852553303e-01 3.5186616189992009e+01  -5.8208443069053210e+01 -2.0460833390755405e-02 2.8888007238210012e+01  -5.8366487638337610e+01 -1.7500247135985300e-01 3.6137462576962307e+01  -5.4339022687022940e+01 -1.6827376975068783e-01 2.2206592380124988e+01  -5.4390254941685214e+01 -1.0158541904145285e-01 2.6776328691760071e+01  -4.9975521374706965e+01 -2.0612934338199038e-01 2.4019071347039645e+01  -4.5448963727423852e+01 -1.7156246486966731e-01 1.8675723035184131e+01  -4.5534758986536495e+01 -2.5910753188122149e-01 2.1421885922497111e+01  -4.1139622570313939e+01 -2.3778523531167020e-01 1.9180496984898078e+01  -4.5652436510755557e+01 -2.9974703551350879e-01 2.5977727317456861e+01  -4.5791338005441325e+01 -3.0584943616084925e-01 3.0817755831485414e+01  -4.1415028834953176e+01 -3.8777709890364914e-01 2.7812111214172685e+01  -4.5809298383176781e+01 -2.3161497638538395e-01 3.4269422577409266e+01  -4.1465247044159184e+01 -1.7015214059230738e-01 3.4219034863169789e+01  -5.0208362121702621e+01 -2.3762119362023829e-01 3.3370644507073671e+01  -5.4631263678867356e+01 -2.0014783376895109e-01 3.5217876191044745e+01  -5.4528463488787047e+01 -1.4961600217885332e-01 3.1723642656426453e+01  -4.9794008103556848e+01 -1.3059761384247567e-01 1.8737757461691366e+01  -5.4142871474485347e+01 -1.8375084336459260e-01 1.9420961661657532e+01  -5.7967426480059537e+01 -1.8174699371172157e-01 2.0373854041901517e+01  -5.4141685748282548e+01 -1.1449417675700418e-01 1.9401711058963521e+01  -5.7960675204558683e+01 -1.4368143850904525e-01 2.0344146622316504e+01  -1.4784705176211816e+01 3.4851274047677089e-01 2.3274143086216817e+01  -9.1735688558525510e+00 4.2780022820694380e-01 1.8712735509690333e+01  -8.6515377490067493e+00 7.4335909461698879e-01 1.6624392010684655e+01  -6.5952626919920005e+00 6.8417659309919576e-01 1.5361649221024452e+01  -4.8801492543172316e+00 5.0659998356747460e-01 1.3417376005545597e+01  -3.6001124911570668e+00 2.4995809404065733e-01 1.1105329530943603e+01  -4.3549298618584649e+00 8.8315614318759361e-01 1.1923731098042227e+01  -3.7944865873833926e+00 8.5754200953882953e-01 9.9242469746267581e+00  -2.4754097635146706e+00 1.0239512447453660e+00 8.5834176559264765e+00  -3.6747668902650626e-01 2.3995414708794510e-01 1.3053285373584178e+00  -9.7609136179661482e-01 1.0512474908450435e+00 5.5146057254669207e+00  -5.5879075567111136e-01 6.5915339331763467e-01 4.4975966776577385e+00  1.6931841486128248e-02 8.0281961638564370e-01 2.8372690162761192e+00  -2.1835457358634897e-01 3.7084654649315152e-01 1.1836483392351766e+00  5.5870967711407676e-02 3.4422282863708120e-01 9.7982313032397539e-01  1.6114629405693090e-01 2.1915058817860769e-01 8.2294352401218740e-01  2.1727511302359750e-01 5.3869611753074691e-02 7.1068906890798456e-01  -1.1271766422702403e+00 8.3687836551108707e-01 3.9995687861325013e+00  -1.6443870881239153e+00 1.0782310237793928e+00 6.5930410945784841e+00  -2.2071170178576702e+00 6.0097118607412037e-01 7.3413166372847725e+00  -1.4820844862062671e+01 -4.1386567068999769e-01 2.3248794204329378e+01  -1.2107079451675977e+01 -2.3477223093811647e-01 2.1745621277698653e+01  -8.6639515880863947e+00 -7.7931602913376941e-01 1.6645980820400347e+01  -9.2273917882920493e+00 -4.6733922965942298e-01 1.8788808420780665e+01  -6.6024688034185761e+00 -7.0765726165926035e-01 1.5376653771641598e+01  -3.7955430965207952e+00 -8.6639712573765504e-01 9.9296982585985134e+00  -4.3537858977272261e+00 -8.9442536961002450e-01 1.1926144427651773e+01  -2.4759185738439689e+00 -1.0320761379748948e+00 8.5846615003147342e+00  -4.8813398909949992e+00 -5.2098213637006363e-01 1.3426542773716562e+01  -3.6066101363546359e+00 -2.6054699995504371e-01 1.1107120406631893e+01  -5.6217570118862603e-01 -6.5999936542251736e-01 4.5013412138419788e+00  -9.7793825350211816e-01 -1.0576607429023923e+00 5.5163276879901719e+00  1.4953498055207610e-02 -8.0522564807501540e-01 2.8404899407187858e+00  2.1718295930738740e-01 -5.3175534143927006e-02 7.0957323384673632e-01  1.5264778662132009e-01 -2.1578870807095421e-01 8.2148026162095167e-01  5.3544268740585779e-02 -3.4279101294170428e-01 9.8143063685806753e-01  -2.1464290658237634e-01 -3.8091265037511296e-01 1.1903000749571808e+00  -3.7558450624481349e-01 -2.4600329513795283e-01 1.3125890306811789e+00  -1.1350394012685980e+00 -8.4790934496391757e-01 3.9980111165875551e+00  -2.2138287644089640e+00 -6.0983720159385291e-01 7.3416775427653818e+00  -1.6489292919685365e+00 -1.0896307394806837e+00 6.5889898766644039e+00  3.0928117998514121e-01 9.4915344440660223e-04 2.1824292854981366e+00  -4.3518097076759177e-01 -2.0630297517115709e-01 3.8975183283475858e+00  -1.7250183385843367e+00 -3.8959648596218494e-01 5.8258202342458931e+00  -4.3056518865999827e-01 2.0710119787869438e-01 3.8916919179672189e+00  -1.7226249175661166e+00 3.8764198059803184e-01 5.8193074953761581e+00  -3.4420798289979362e+00 -5.4712793402905802e-01 8.0779784346020076e+00  -5.5921293069513967e+00 -6.6567130022004917e-01 1.0735013663090168e+01  -8.1601147425037368e+00 -7.2345947064867011e-01 1.3802096729148520e+01  -1.1106547453456169e+01 -7.1511089721879495e-01 1.7184814609270752e+01  -7.8516376564012385e+00 -4.6095206631284263e-01 1.1150376542809154e+01  -7.7441086667793781e+00 -1.5504445090194682e-01 9.5651083966123416e+00  -1.0514615862380410e+01 -2.9214682851900542e-01 1.1397224684264241e+01  -3.4418242552032026e+00 5.3970193068522043e-01 8.0683937950278946e+00  -5.5935866524686713e+00 6.4832252826077619e-01 1.0719482189745230e+01  -7.7424968890071764e+00 1.3183625799756607e-01 9.5583005415238791e+00  -7.8513466139822912e+00 4.3677189962886837e-01 1.1130890254135721e+01  -1.0511740056405870e+01 2.5540662536673236e-01 1.1381222973820821e+01  -8.1571679840032747e+00 6.9379231910847117e-01 1.3771321619136549e+01  -1.1099547308649459e+01 6.8080425112880216e-01 1.7152320841507994e+01  -5.3473866568022910e+00 -7.4992539955901494e-03 8.1404030896364805e+00  -3.3386555488622136e+00 1.6523731782726306e-01 6.9612068100604265e+00  -3.3348343172093347e+00 -1.7349061760591886e-01 6.9657198367784945e+00  -1.4404346237905647e+01 -6.4170210285833562e-01 2.0715408847479015e+01  -1.7973508770489264e+01 -5.1670833813688288e-01 2.4120676260570530e+01  -2.1764552614116592e+01 -3.4148771629158881e-01 2.7158967386473485e+01  -2.5526582783030065e+01 -1.7226204405106299e-01 2.9432627450913028e+01  -2.1354837640607922e+01 -5.4854937309213625e-01 2.4204224633520592e+01  -2.0980903094443949e+01 -5.0007469652948244e-01 2.0083216200097322e+01  -2.4966343718343101e+01 -5.3737823053297518e-01 2.3638843822767399e+01  -3.7505270848140739e+01 -2.6711398155014277e-01 3.2610504928490322e+01  -2.8781083213418253e+01 -5.0784110811563421e-01 2.2614357238326924e+01  -2.8559909328049741e+01 -3.7375866194096530e-01 1.8342835586481684e+01  -3.2767042841612664e+01 -4.4034327840886295e-01 2.1357237823582476e+01  -3.7275964509667475e+01 -4.2295845953529704e-01 2.9277702301079749e+01  -3.7065236840975992e+01 -4.4125306168327710e-01 2.4585788276800109e+01  -3.689