<?xml version="1.0"?>
<VTKFile type="UnstructuredGrid"  version="0.1"  >
<UnstructuredGrid>
<Piece  NumberOfPoints="1746" NumberOfCells="5283">
<Points>
<DataArray  type="Float64"  NumberOfComponents="3"  format="ascii">20 -4.898587196589413e-15 200  20 -4.898587196589413e-15 0  18 -4.408728476930472e-15 200  18 -4.408728476930472e-15 0  18.47759065022574 7.653668647301796 200  14.14213562373095 14.14213562373095 200  7.653668647301797 18.47759065022574 200  1.224646799147353e-15 20 200  -7.653668647301794 18.47759065022574 200  -14.14213562373095 14.14213562373095 200  -18.47759065022574 7.653668647301798 200  -20 2.449293598294707e-15 200  -18.47759065022574 -7.653668647301792 200  -14.14213562373095 -14.14213562373095 200  -7.653668647301807 -18.47759065022573 200  -3.673940397442059e-15 -20 200  7.6536686473018 -18.47759065022573 200  14.14213562373096 -14.14213562373094 200  18.47759065022574 -7.653668647301775 200  20 -4.898587196589413e-15 8  20 -4.898587196589413e-15 16  20 -4.898587196589413e-15 24  20 -4.898587196589413e-15 32  20 -4.898587196589413e-15 40  20 -4.898587196589413e-15 48  20 -4.898587196589413e-15 56  20 -4.898587196589413e-15 64  20 -4.898587196589413e-15 72  20 -4.898587196589413e-15 80  20 -4.898587196589413e-15 88  20 -4.898587196589413e-15 96  20 -4.898587196589413e-15 104  20 -4.898587196589413e-15 112  20 -4.898587196589413e-15 120  20 -4.898587196589413e-15 128  20 -4.898587196589413e-15 136  20 -4.898587196589413e-15 144  20 -4.898587196589413e-15 152  20 -4.898587196589413e-15 160  20 -4.898587196589413e-15 168  20 -4.898587196589413e-15 176  20 -4.898587196589413e-15 184  20 -4.898587196589413e-15 192  18.47759065022574 7.653668647301796 0  14.14213562373095 14.14213562373095 0  7.653668647301797 18.47759065022574 0  1.224646799147353e-15 20 0  -7.653668647301794 18.47759065022574 0  -14.14213562373095 14.14213562373095 0  -18.47759065022574 7.653668647301798 0  -20 2.449293598294707e-15 0  -18.47759065022574 -7.653668647301792 0  -14.14213562373095 -14.14213562373095 0  -7.653668647301807 -18.47759065022573 0  -3.673940397442059e-15 -20 0  7.6536686473018 -18.47759065022573 0  14.14213562373096 -14.14213562373094 0  18.47759065022574 -7.653668647301775 0  16.44381823756682 7.321259575364403 200  12.04435091445945 13.37660685859309 200  5.562305898749054 17.11901729331276 200  -1.88151233881776 17.90139411662892 200  -8.999999999999996 15.5884572681199 200  -14.56230589874905 10.58013454126452 200  -17.6066568132085 3.742410434719668 200  -17.6066568132085 -3.742410434719671 200  -14.56230589874905 -10.58013454126452 200  -8.999999999999993 -15.5884572681199 200  -1.88151233881776 -17.90139411662892 200  5.562305898749051 -17.11901729331277 200  12.04435091445944 -13.3766068585931 200  16.44381823756681 -7.321259575364417 200  16.44381823756682 7.321259575364403 0  12.04435091445945 13.37660685859309 0  5.562305898749054 17.11901729331276 0  -1.88151233881776 17.90139411662892 0  -8.999999999999996 15.5884572681199 0  -14.56230589874905 10.58013454126452 0  -17.6066568132085 3.742410434719668 0  -17.6066568132085 -3.742410434719671 0  -14.56230589874905 -10.58013454126452 0  -8.999999999999993 -15.5884572681199 0  -1.88151233881776 -17.90139411662892 0  5.562305898749051 -17.11901729331277 0  12.04435091445944 -13.3766068585931 0  16.44381823756681 -7.321259575364417 0  18 -4.408728476930472e-15 8  18 -4.408728476930472e-15 16  18 -4.408728476930472e-15 24  18 -4.408728476930472e-15 32  18 -4.408728476930472e-15 40  18 -4.408728476930472e-15 48  18 -4.408728476930472e-15 56  18 -4.408728476930472e-15 64  18 -4.408728476930472e-15 72  18 -4.408728476930472e-15 80  18 -4.408728476930472e-15 88  18 -4.408728476930472e-15 96  18 -4.408728476930472e-15 104  18 -4.408728476930472e-15 112  18 -4.408728476930472e-15 120  18 -4.408728476930472e-15 128  18 -4.408728476930472e-15 136  18 -4.408728476930472e-15 144  18 -4.408728476930472e-15 152  18 -4.408728476930472e-15 160  18 -4.408728476930472e-15 168  18 -4.408728476930472e-15 176  18 -4.408728476930472e-15 184  18 -4.408728476930472e-15 192  -20 -3.577002909285701e-09 157.1522859688613  -7.254555057659097 18.63790307184241 196.2464662207711  14.59854400123663 13.67049790768274 157.1291993111093  14.59815222504264 13.67091626828584 74.63377681723654  14.66458264151024 -13.5996329343963 74.51265824757157  -7.336813475541644 18.60567569386048 115.8784598384242  -7.336815197136739 18.60567501498033 33.3308368277247  -16.53612958952723 11.24972969445763 12.77115904541336  4.390739930502511 19.51208350901284 12.77155373297194  -7.336813815372425 -18.60567555985432 33.33083653590681  4.390613651326113 -19.51211192477095 12.77116787833458  -16.53625057924966 -11.24955184797445 12.77155704856215  -7.336813377815482 -18.60567573239703 115.8784602755849  14.59855243317726 -13.67048890331923 157.1301935542192  -7.252993780083373 -18.63851070300607 196.2461957106742  14.59485626348152 -13.6744349297627 196.2314928265539  -19.99999996285534 0.00121892837811112 196.2375338524816  14.59589557168212 13.67332558160414 196.234232059939  -20 -6.917776781684446e-11 74.60463432800341  19.58171001031401 -4.068984280132825 178.6286116816276  4.403115200139329 -19.50929461908611 177.7914132649166  -16.53374078505016 -11.25324022905264 177.7911735258169  -7.336813815073833 -18.60567555997206 157.1522855029262  -16.53376376960875 11.25320645908413 177.7911064063189  4.403113723336149 19.50929495239049 177.7913839176151  -7.336813485621496 18.60567568988567 157.1522850126818  19.58171010291322 4.068983834505414 178.6285906416217  19.58252678125401 -4.065051643149114 93.90511220268762  19.57868749761984 -4.083502892192511 53.22971628024598  4.403205398312744 -19.50927426175227 53.96758835519088  14.61785401102171 -13.64984776883817 33.35164968927933  19.5473156437928 -4.231128823604091 12.40944767788517  19.58213715875266 4.066928115395991 93.90668575976926  4.40326514569461 19.5092607767878 53.96767048800787  19.57891179226929 4.082427345408441 53.23238797597054  14.61675941947295 13.65101989132126 33.35249188423647  19.54731122125273 4.231149255165441 12.40935463233918  -20 -6.7520857564976e-08 33.33082561889294  -16.53384800272735 11.25308269865234 53.96772144118037  -7.33681320527131 18.60567580043672 74.60463464023573  -16.53384800267747 -11.25308269872563 53.96772143983446  -7.336811259945716 -18.60567656754072 74.60463190036347  4.403399558754314 19.50923043910144 95.24133968208801  14.59950209040939 13.66947470505476 115.8800457054155  19.5821408120063 4.066910525049366 137.9673094510583  4.403383288161076 19.50923411150586 136.5156205536882  -16.5338480029885 11.25308269826865 136.5153729923047  4.403408530170225 -19.50922841417426 95.24132645933622  14.59947019005538 -13.66950877572725 115.8810197839813  -16.53384800091726 -11.25308270131186 136.515372994472  4.403399779043195 -19.50923038938037 136.5156451596747  19.58213930520597 -4.066917780273809 137.9673072869363  -20 -2.564386339335067e-12 115.8784601036286  -16.53384800257306 -11.25308269887905 95.24154721444071  -16.53384800322139 11.25308269792647 95.24154721278708  19.4498891072158 -4.658520550239994 196.5377854653948  2.964768413093922 -19.77903304655515 196.9307279522763  17.95651372119032 -8.807020777805848 167.177721036324  19.55203812871638 -4.209252310472845 156.6225318468562  -1.572187114797752 -19.93810993238988 188.0399403433447  -12.45148245756111 -15.65121671337561 188.1574350617583  -7.336596612718528 -18.60576120835283 177.789193203755  9.951887834660454 -17.34819669378744 167.467258928221  -1.53477259706594 -19.9410248752489 167.4707370700607  4.403102254316884 -19.50929754086573 157.1521634578859  -12.48868202734149 -15.62154989813615 167.4707579814557  -19.11382969677387 -5.887403020239496 167.4707499977363  -16.53384799007402 -11.25308271724354 157.1522860143322  14.61647106773021 -13.65132863593159 177.800524435766  9.973239995051376 -17.33593043367179 188.158973585095  17.88308248845543 -8.955186246589108 188.0121838158676  2.963942640745907 19.77915680766924 196.9299689925445  19.44980170671416 4.658885442839179 196.5366030425915  -12.45230274478316 15.65056409054529 188.1553686943042  -1.573328807700406 19.93801987316845 188.0400781013074  -7.336615195397576 18.60575388084722 177.7891673837919  -19.11382986046183 5.887402488816082 167.4707494732925  -12.48868210994937 15.62154983209511 167.4707580290736  -16.53384798945692 11.25308271815024 157.1522860082947  -1.534773335176115 19.94102481843981 167.4707243037771  9.951732968301219 17.34828553280198 167.4671008528011  4.403130936153249 19.50929106756804 157.1521191769911  17.95649356257224 8.807061878816443 167.1774251543984  19.55208201754406 4.209048441064819 156.6231751919196  14.61641314815322 13.65139065013135 177.8004959730915  17.88316288639807 8.955025693908128 188.0112147861584  9.972690905389053 17.33624630955532 188.16043296406  -19.99999999999202 -1.786325413565463e-05 177.7881802467649  -19.12414457626027 5.853810231489801 188.0312509605919  -17.23058669885052 10.15415589861588 196.926470979522  -19.12398864137008 -5.854319639782918 188.0337201064418  -17.22943470276934 -10.1561104672511 196.9291930797314  17.94674315331555 -8.826913967458921 84.71261320140235  17.92312136478943 -8.874780027867102 64.43065115907906  9.951344005844815 -17.34850865283055 64.28460399877943  14.61182535496999 -13.65630110226983 53.95516387168458  17.89692467759101 -8.927490525597547 43.69454235412724  19.58281265613158 -4.063674257965658 34.39187353017358  9.949319333956087 -17.34966987556154 43.64969108611599  -1.534774998660492 -19.94102469040863 43.6492687753165  4.403445140994931 -19.50922015074534 33.33088794299937  17.47734609455951 -9.723290260554048 3.725480716857882  -1.535193325653587 -19.94099248916334 23.01412252690244  -12.48859761488027 -15.62161738148796 23.01411122607538  -7.343574506721506 -18.60300818320064 12.78337696610998  10.27960862208181 -17.15603819583127 3.681337769892127  -2.334858233296958 -19.863
[...]
<PointData  Scalars="f_1169"> 
<DataArray  type="Float64"  Name="f_1169"  format="ascii">7.0083081296498818e+01  3.5830116439970039e-05  6.9628088682663346e+01  1.2139684192629177e-04  6.9673320333341323e+01  6.8556058405314488e+01  6.7098099465693835e+01  6.5600857856408297e+01  6.4256415134775523e+01  6.3184227113546072e+01  6.2476909802305400e+01  6.2222434383262481e+01  6.2461265854242136e+01  6.3159324699590854e+01  6.4225591792072649e+01  6.5568169411109011e+01  6.7059998841759651e+01  6.8525368391699843e+01  6.9657103435817888e+01  2.9465845246753437e+00  5.7333458745962975e+00  8.3819817742151166e+00  1.1012188012385680e+01  1.3580157520917643e+01  1.6153979605019451e+01  1.8702600508841932e+01  2.1318730742174850e+01  2.3942559602726490e+01  2.6646726633208388e+01  2.9371015768939085e+01  3.2104416103634222e+01  3.4906043496932469e+01  3.7716421883219780e+01  4.0569637543100114e+01  4.3437977487092262e+01  4.6340075808925292e+01  4.9260163647699898e+01  5.2194815064249326e+01  5.5146319785390084e+01  5.8113179914130988e+01  6.1093827620204245e+01  6.4094444183767934e+01  6.7094760508743065e+01  1.5406319832431492e-04  -8.3421431402603297e-05  -3.0125821738551079e-05  9.6870898809735243e-05  -1.0282330828406474e-05  7.4608617218669906e-05  1.0123343880194854e-04  7.5153526521041425e-06  8.9422153025288511e-05  1.6774873811599460e-04  1.8987860324333288e-05  1.2753693567800720e-04  -1.1257223040189557e-04  -1.1437079980286283e-04  1.5042740900785711e-04  6.9227093799741397e+01  6.8125986316586321e+01  6.6697920181574474e+01  6.5259284078998107e+01  6.4003949978257722e+01  6.3071592883809217e+01  6.2564869797964676e+01  6.2556779805335864e+01  6.3050740512253540e+01  6.3975858602215126e+01  6.5227840351230839e+01  6.6663330341387734e+01  6.8098426654539807e+01  6.9212096171163225e+01  3.4981606313299257e-04  3.8665652782827797e-04  2.1024680238686223e-04  1.9237334923308987e-04  2.8867701110560113e-04  1.5375285767150326e-04  1.0180307058465029e-04  1.1412660139355548e-04  9.8530494487462458e-05  2.3575154553637752e-04  1.8256392236566614e-04  1.3531137245020544e-04  4.8562180138956315e-04  3.2587971717835826e-04  2.6847483373630987e+00  5.4942220678851372e+00  8.1583504297539964e+00  1.0741266206347845e+01  1.3246968364390106e+01  1.5764244409579309e+01  1.8260141720550209e+01  2.0839701224778562e+01  2.3426074663146785e+01  2.6086549258652401e+01  2.8789134254262269e+01  3.1515103671334568e+01  3.4308665042830285e+01  3.7121900004000004e+01  3.9968116699449567e+01  4.2849410573914156e+01  4.5757302166177205e+01  4.8691497850499886e+01  5.1642071585322292e+01  5.4602715498245971e+01  5.7584212277641555e+01  6.0585771653592737e+01  6.3598216851835204e+01  6.6624912387352367e+01  4.4765221703990399e+01  6.2839612559680582e+01  5.2517361994372607e+01  2.3224794749868447e+01  2.3181080273673718e+01  3.1281231174432236e+01  7.3340673133864911e+00  2.4133687172530047e+00  3.6519734419447749e+00  7.3282292589583395e+00  3.6510702976680909e+00  2.4154843549162033e+00  3.1272354942966050e+01  5.2482689836249115e+01  6.2812589746375934e+01  6.7219052448134093e+01  6.0699394709371816e+01  6.7249446127753231e+01  1.4780737618543109e+01  6.1942065038184950e+01  5.7801726722355831e+01  5.3767266836036626e+01  4.7167523810531918e+01  5.3788644341123906e+01  5.7840830844882149e+01  4.7207250970347935e+01  6.1952338866562421e+01  3.1242585416237318e+01  1.7706396469949699e+01  1.4509756328732568e+01  1.0506370349228634e+01  4.4585848493367326e+00  3.1236798171188099e+01  1.4518715656759195e+01  1.7716673083491813e+01  1.0511677286928139e+01  4.4616191263236145e+00  5.6265859502670850e+00  1.0363439020710048e+01  1.7568361456195049e+01  1.0353563835872711e+01  1.7533629483626754e+01  2.7091889889117837e+01  3.7354952087830092e+01  4.6915320015415993e+01  4.2039303011355145e+01  3.7105472030350974e+01  2.7087335625006446e+01  3.7346924441138945e+01  3.7092312312633993e+01  4.1991829190433535e+01  4.6907208712708623e+01  2.8342161649756200e+01  2.1748640640978504e+01  2.1758576556152232e+01  6.8637390705447018e+01  6.4944870315068172e+01  5.7183073291485705e+01  5.3748136096164338e+01  6.0583352037073141e+01  5.8672509945234893e+01  5.5407974993333973e+01  5.5151432869579253e+01  5.2479067725791325e+01  4.9836563788054050e+01  5.0284307449706006e+01  4.9122270062788203e+01  4.5365235990389223e+01  6.0250619959082051e+01  6.3044488143178917e+01  6.4975734331426082e+01  6.4978834776898537e+01  6.8647063080948527e+01  5.8697378213322196e+01  6.0618067302698257e+01  5.5442598671166557e+01  4.9134430622020531e+01  5.0318035928768722e+01  4.5388392217773905e+01  5.2520562495188550e+01  5.5191812538407426e+01  4.9882381746455955e+01  5.7205827678038155e+01  5.3759384157658346e+01  6.0282574600392870e+01  6.4996347655171505e+01  6.3080707029151320e+01  5.3201127442085387e+01  5.7518669174636642e+01  6.1441080220869672e+01  5.7511633785762157e+01  6.1424528226041893e+01  2.7573015833931560e+01  2.0843331603924373e+01  1.8753888043876465e+01  1.6730138918065876e+01  1.4285467260976453e+01  1.1676250882906608e+01  1.2723473819885653e+01  1.0657883965805524e+01  8.9902363492455226e+00  1.3759744784140213e+00  5.6956856917492305e+00  4.5762868015597835e+00  2.9458053730126950e+00  1.2585626524352471e+00  1.0388076239017112e+00  8.6580457387999599e-01  7.4464078058062488e-01  4.2370572103508666e+00  6.8784650060566328e+00  7.6883923507973577e+00  2.7572043023691641e+01  2.4888992199156732e+01  1.8780209002499998e+01  2.0936025915665368e+01  1.6747722422635938e+01  1.0664061790807098e+01  1.2726131184485837e+01  8.9924932319731958e+00  1.4294993834858630e+01  1.1680334600912273e+01  4.5805071721707646e+00  5.6988557547491228e+00  2.9495939116424803e+00  7.4350903692960124e-01  8.6236087825926044e-01  1.0397364871100288e+00  1.2672916705306521e+00  1.3861448318008212e+00  4.2398395751280180e+00  7.6913480202093192e+00  6.8774558381007997e+00  2.1993783310958923e+00  3.9230730905952278e+00  6.0856134047219426e+00  3.9168039176987657e+00  6.0785485969104052e+00  8.7956007226683077e+00  1.2120358393991424e+01  1.6047856424613311e+01  2.0471575972924761e+01  1.3642367963933408e+01  1.2305557780775942e+01  1.5506360209481553e+01  8.7862319364609380e+00  1.2106323795677859e+01  1.2298974757606468e+01  1.3625492091394314e+01  1.5491978332262542e+01  1.6018563767536492e+01  2.0439211908397915e+01  9.7373445911388004e+00  7.7198377950410890e+00  7.7224255845039433e+00  2.5236752414389265e+01  3.0081746359703292e+01  3.4802942067875129e+01  3.8959098700187113e+01  3.2279505956626899e+01  2.9043106395096242e+01  3.4381752144713424e+01  4.9697624641969057e+01  3.6601310929266788e+01  3.3940279592128768e+01  3.9109650322862322e+01  4.7395626226508803e+01  4.4474317254811019e+01  4.2030952887652660e+01  4.0740413707058764e+01  4.4884845157774429e+01  3.9727639430195310e+01  4.2079316501351748e+01  2.5226115794862235e+01  3.0086597294385253e+01  2.9036144032597900e+01  3.2277184876096939e+01  3.4365275161196394e+01  3.4807296222562037e+01  3.8956782155907987e+01  3.3937697561125468e+01  3.6573526804580560e+01  3.9078994353996336e+01  4.0729729263102243e+01  4.2001301696373268e+01  4.4428949252214181e+01  4.7353150234840449e+01  4.9676237448411726e+01  4.4855618603384372e+01  4.2066813278632551e+01  3.9698099361868756e+01  3.6418747477016176e+01  3.2509602800200533e+01  2.9090775893032948e+01  3.2483583853498281e+01  2.9069884040365423e+01  2.6227703095433210e+01  2.3913620839412943e+01  2.2043536563551260e+01  1.9358123048096505e+01  1.7892393579175934e+01  2.6231029222116355e+01  2.3932337244632780e+01  1.7899701616488745e+01  1.9383071159360110e+01  2.2071165723368566e+01  2.0952909607187056e+01  2.4718164480925140e+01  2.4723167916223002e+01  6.8123679377502029e+01  6.6660454461690065e+01  6.3851714383015931e+01  5.9509700560455414e+01  5.7237189015205402e+01  5.5428193596986070e+01  5.4881558390823749e+01  5.3363494797473010e+01  6.1863107082819631e+01  6.0995966340648167e+01  5.9498322761068941e+01  5.9178073442480411e+01  5.7998086221361376e+01  5.6539402995984034e+01  5.6988089396529084e+01  5.6186264366616001e+01  5.4464922999543759e+01  5.6462504266485830e+01  5.5143231183869226e+01  5.3805855052035369e+01  5.3825630374590681e+01  5.2509470021408909e+01  5.1232872327731116e+01  5.1125850944693155e+01  4.9809596909678724e+01  4.8433128915158925e+01  5.1981557188228386e+01  5.1408947705225849e+01  4.9555863563342704e+01  4.8674932575583213e+01  4.7789948777175233e+01  4.6121717440998886e+01  4.7195840409502850e+01  4.6901411795980273e+01  4.4908949014049050e+01  5.1272790070935159e+01  5.2824869156853168e+01  5.3901024985137184e+01  5.6336511103180655e+01  5.7728171065970322e+01  5.9076711547939354e+01  5.8792788630645241e+01  6.1189370168031388e+01  6.0430049642812008e+01  6.1818918472070976e+01  6.2996848099636836e+01  6.4600908894777803e+01  6.5423131080043675e+01  6.3489077019416960e+01  6.5456596452230585e+01  6.6305957324756207e+01  6.6964123618108474e+01  6.4088825249638305e+01  6.2680796407590670e+01  6.1638652047227573e+01  6.3885281861397097e+01  6.6694266671606414e+01  6.8144278128438245e+01  6.1033628060631116e+01  6.1890699199685820e+01  5.9529986431518722e+01  5.6210160478336185e+01  5.7019193476816895e+01  5.4494520590618748e+01  5.8032846237484115e+01  5.9214498712836992e+01  5.6577095436042413e+01  5.1425872408330385e+01  5.2009506286542944e+01  4.9580100412923620e+01  4.6908083499964469e+01  4.7214667255076357e+01  4.4921409783324286e+01  4.7819006799415270e+01  4.8712588356750999e+01  4.6153623096633204e+01  5.5183598323000652e+01  5.6502818027092097e+01  5.3848293898282762e+01  4.9852635926441451e+01  5.1170061044301626e+01  4.8478014328378947e+01  5.2553718516110209e+01  5.3867304402182981e+01  5.1276081595439557e+01  5.1312793614152248e+01  5.3939416220156552e+01  5.2859928603040615e+01  5.9523792828232487e+01  5.7248165583781237e+01  5.4918120684216213e+01  5.5443017146353384e+01  5.3387591569071105e+01  5.6371775357201528e+01  5.8821118732093161e+01  6.1211234160275509e+01  5.7763700871892141e+01  5.9114211468813799e+01  6.3504297096471120e+01  6.5466218814040900e+01  6.6989511967077732e+01  6.6326111998443920e+01  6.0467501150182919e+01  6.1854870697601520e+01  6.5447780906757856e+01  6.4639335690817461e+01  6.3027594107747895e+01  6.4117438181244609e+01  6.1673751050910404e+01  6.2707110076702314e+01  4.8978623606444081e+01  5.1129693216254019e+01  5.3349575061115075e+01  5.1124461957884279e+01  5.3338637202317294e+01  5.5634465405474373e+01  5.8003107039764579e+01  6.0606416352343210e+01  6.2413221252683925e+01  5.9660577562144816e+01  5.9295934771004745e+01  6.1008193399515527e+01  5.5620454158169153e+01  5.7985788622904337e+01  5.9289223370786516e+01  5.9640432418550787e+01  6.0998544952558348e+01  6.0578224382449449e+01  6.2383937278804702e+01  5.7338778585450356e+01  5.5326324270861278e+01  5.5329813087343112e+01  2.9524897878535086e+01  2.7986818284642808e+01  2.6140994064435738e+01  2.5404192489271281e+01  2.4044258698605262e+01  2.2006643986703260e+01  2.0948862126890802e+01  1.9914481615258339e+01  1.9592996265760878e+01  1.8792718023515597e+01  1.7474989628991747e+01  1.7788857973900161e+01  1.6587883067199403e+01  1.5696841789951185e+01  1.6073856180080703e+01  1.4682568865900262e+01  1.2999577279541196e+01  1.2405770302077118e+01  1.1105759065627884e+01  1.3660128018372466e+01  1.2518981447952749e+01  1.1705591685835342e+01  1.1670668831386958e+01  1.0806769340995771e+01  9.7902382547652689e+00  9.8601092407941664e+00  8.9165499914895676e+00  8.1331164303525494e+00  1.3605045048272199e+01  1.4699393848224204e+01  1.5544147824936124e+01  2.8733290657648993e+00  1.4397542315967566e+00  6.5423476860648089e+00  5.8732258283227132e+00  5.0928632253900465e+00  4.7252717070148735e+00  4.2416891532209862e+00  3.2906156086630274e+00  3.7970886046906971e+00  3.4162661060344162e+00  2.6418262368598726e+00  2.4673145263421290e+00  2.2541289882433948e+00  1.1636115211680860e+00  1.6469477109506738e+00  1.5273417709387018e+00  7.8975276227746571e-01  1.0825394470759409e+00  1.8210578322198125e+00  2.0420479815106836e+00  1.5229473673049487e+00  2.6716423963674614e+00  3.9778594040730790e+00  2.8141783127781270e+00  4.4230724721454386e+00  5.2002829215178457e+00  6.2959594502297476e+00  7.2737472454873311e+00  7.9926085195773897e+00  8.6486943743378113e+00  6.0527341165565565e+00  7.5861841859965988e+00  9.1964468147502263e+00  9.5951948986738298e+00  7.3614353853619363e+00  5.9332821095964787e+00  5.6200265143098695e+00  2.1700522187761237e+01  2.2588511504256896e+01  2.9521950576353948e+01  2.8001983587005718e+01  2.5435177365115610e+01  2.6239476534674370e+01  2.4217902313473424e+01  2.0984194814639146e+01  2.2116534436680524e+01  1.9958427509975998e+01  1.6607690712718700e+01  1.7812102395983771e+01  1.5709936605106863e+01  1.8824004631217228e+01  1.9623526248124467e+01  1.7492991322875042e+01  1.2522267858400880e+01  1.3661999503841466e+01  1.1705590783777584e+01  8.9227392336406677e+00  9.8630471772916977e+00  8.1370640620275214e+00  1.0808565055838287e+01  1.1674571989155828e+01  9.7925177815174482e+00  1.6086322800189450e+01  1.4689983005571166e+01  1.2412470211397288e+01  1.3009039944117120e+01  1.1113668109358946e+01  1.3613012874741059e+01  1.5556692123980525e+01  1.4707466381798717e+01  5.8784802009778279e+00  6.5465715820657211e+00  5.0968493950442539e+00  3.4184520055702805e+00  3.8004948281091631e+00  2.6440645523383330e+00  4.2450025734896562e+00  4.7276757553845252e+00  3.2926151327242517e+00  1.5216379551483499e+00  1.6427784649751418e+00  7.8778877238152922e-01  2.2511715312443314e+00  2.4715389284280853e+00  1.1609611784996563e+00  1.0749714249810911e+00  2.0369122011825924e+00  1.8316407212474139e+00  2.8764154808744258e+00  1.4362616876818270e+00  1.5348052603049389e+00  2.8152037691071716e+00  4.4260041361664619e+00  2.6851321395468069e+00  3.9795841830469536e+00  6.0557135189392968e+00  7.5884867547628971e+00  9.5994054003112161e+00  9.2004821455380057e+00  5.1998988092853802e+00  6.2974704697935078e+00  8.6503897196122423e+00  7.9939034461032712e+00  7.2764789584086147e+00  7.3613518169403163e+00  5.6195007306220983e+00  5.9344398431420347e+00  2.1791169704169082e+01  2.3043429948497767e+01  8.2263377567249352e-01  1.4550096486446285e+00  2.2501450107016328e+00  1.4625937652149366e+00  2.2554148237426763e+00  3.1541149805599193e+00  4.1713271167782109e+00  5.3272314454681382e+00  6.6210792752439147e+00  4.9355080603819443e+00  4.7305828472525064e+00  5.7371338346878700e+00  3.1529686423191987e+00  4.1671717684448861e+00  4.7251470951953447e+00  4.9290654039524755e+00  5.7317195668550820e+00  5.3213740912564900e+00  6.6141792648708400e+00  3.8216844071574601e+00  3.0096347811707771e+00  3.0098400093403619e+00  8.0651579834546041e+00  9.6557404408528971e+00  1.1398415148353889e+01  1.3278665961175289e+01  1.0373596397258536e+01  9.5422640606620384e+00  1.1112960026380568e+01  1.5298578980377776e+01  1.7429288448426796e+01  1.9650031984296099e+01  2.1932861030840385e+01  1.8203812201769626e+01  1.6785552517256811e+01  1.8962481306540713e+01  1.1914352964359244e+01  1.1270173789612970e+01  1.2807516691256980e+01  1.5521396100373778e+01  1.4513864883896948e+01  1.6382077469572280e+01  1.3818022628092258e+01  1.3465006872346068e+01  1.4958557979755646e+01  1.4740362348245052e+01  1.2849332406940286e+01  1.4006590821644263e+01  8.0572772821072203e+00  9.6465173148621961e+00  9.5324150434283208e+00  1.0362024979748508e+01  1.1100312731905770e+01  1.1387990705786326e+01  1.3267289698946350e+01  1.1261189559599524e+01  1.1901710169855420e+01  1.2795858589051267e+01  1.3462895961271697e+01  1.3809156568417569e+01  1.4954569556788483e+01  1.4497592763213961e+01  1.5497406650272191e+01  1.6358198531717779e+01  1.5278724997939943e+01  1.7399728460331922e+01  1.6750583380414792e+01  1.8165222769087261e+01  1.8922345326219347e+01  1.9618800077709714e+01  2.1903345001770209e+01  1.4717561240513504e+01  1.3987700644445168e+01  1.2833071278237927e+01  1.2125420524559887e+01  1.0937047262406480e+01  9.8836290899040016e+00  1.0940240406264646e+01  9.8908323091994319e+00  8.9546414447175486e+00  8.1195785725958398e+00  7.3520454154661126e+00  6.8595846470132864e+00  6.6076005738902994e+00  8.9608344091980534e+00  8.1265944116105100e+00  6.6094303627949760e+00  6.8655610740858091e+00  7.3597913869692375e+00  7.5749918690149789e+00  8.6645231116224632e+00  8.6623249330032159e+00  2.4256676075222508e+01  2.6580737653093511e+01  2.8854042997150536e+01  3.1033191294736810e+01  2.7658327832539712e+01  2.6161100668208633e+01  2.8681827622076707e+01  3.3315090613900885e+01  3.5628514805090866e+01  3.7039010497464879e+01  3.6105319748372722e+01  3.8389399902206875e+01  2.9677549702057931e+01  2.8038482502407131e+01  3.0671012429315844e+01  3.4840106410425555e+01  3.3323701611597720e+01  3.5958019882298530e+01  3.1693426246292528e+01  3.0112977354586320e+01  3.2766232586143140e+01  3.3685354878599881e+01  3.1204331723502158e+01  3.2455894446892756e+01  4.8329036946758173e+01  5.0357394428099532e+01  5.1874062864831082e+01  5.1116006624791922e+01  3.3911845267461395e+01  3.2549581087991264e+01  3.5146632846616974e+01  3.9311872090483490e+01  3.7806952572795197e+01  4.0506060726018049e+01  3.6488955595115883e+01  3.5456752186555477e+01  3.7948599596951340e+01  4.4730739261506443e+01  4.3226214706107115e+01  4.5935934396731504e+01  4.9992544536232870e+01  4.8627659045938422e+01  4.7178043842769782e+01  4.5793340040934901e+01  3.9528697224061787e+01  3.8867443725085302e+01  4.1222805766703566e+01  4.4589964369733934e+01  4.3654829642107323e+01  4.3023200394972982e+01  4.2706127080479753e+01  4.3130744199259141e+01  4.0512429555250954e+01  4.1773169324286215e+01  4.8683751853347744e+01  4.6150384063496958e+01  4.3539553177083548e+01  4.7354542574216424e+01  4.5984576337117019e+01  4.0876281333138557e+01  3.8170490486624331e+01  3.5461840290078847e+01  3.7060968780779156e+01  3.8555334844350099e+01  4.4502679016986733e+01  4.2351329289028797e+01  3.9763265538606632e+01  4.0493865238682794e+01  4.1079887306562810e+01  4.3566422045456569e+01  4.2335903707257408e+01  2.4237862972196631e+01  2.6575537466109505e+01  2.6155970081930569e+01  2.7661377291251966e+01  2.8684107001339846e+01  2.8859635835070478e+01  3.1039657071029122e+01  2.8033433814743326e+01  2.9676084491286211e+01  3.0666239277736981e+01  3.0104126440161505e+01  3.1682824097116448e+01  3.2751258954566474e+01  3.3314197150565384e+01  3.4837145540081771e+01  3.5944920945658332e+01  3.3320393446735345e+01  3.5630611425677735e+01  3.6106002604570726e+01  3.7039779207217990e+01  3.8384754244175873e+01  3.3689644747120909e+01  3.2461698743173656e+01  3.1206550336694271e+01  3.2542613388988919e+01  3.3894111113430242e+01  3.5127701505152913e+01  3.5450833341571702e+01  3.6469650577194834e+01  3.7927668086358580e+01  3.7776417435997367e+01  3.9274109479369699e+01  4.0465038120387845e+01  3.8852009021790288e+01  3.9505941565391751e+01  4.1201818564778698e+01  4.2700468147380946e+01  4.3006184767604552e+01  4.3627920877947894e+01  4.4554829755808107e+01  4.3178317806476485e+01  4.4685786221984891e+01  4.5888991549880181e+01  4.5750874050849156e+01  4.7131505800274887e+01  4.8582447553068384e+01  4.9954449103157629e+01  4.3092881899194900e+01  4.1733083863780877e+01  4.0481850617428265e+01  4.8315325077385545e+01  5.0347438565466653e+01  5.1089287261396187e+01  5.1857508838005003e+01  4.8650767744049965e+01  4.7328578401643369e+01  4.5966609439467277e+01  4.6115051613769396e+01  4.3498741158787659e+01  4.4493393707702758e+01  4.2346097682365453e+01  4.0488633560644111e+01  3.9747240269152130e+01  4.0835383789973712e+01  3.8138749080319641e+01  3.8535305268487441e+01  3.7037949680189918e+01  3.5438842984703825e+01  4.1057603118714553e+01  4.2302477933422850e+01  4.3545875592177204e+01  4.0572670334946999e+01  3.8527227187287224e+01  3.6582258288484226e+01  3.8533186601149005e+01  3.65897432