<?xml version="1.0"?>
<VTKFile type="UnstructuredGrid"  version="0.1"  >
<UnstructuredGrid>
<Piece  NumberOfPoints="2226" NumberOfCells="6336">
<Points>
<DataArray  type="Float64"  NumberOfComponents="3"  format="ascii">0 0 0  1 0 0  1 0.1 0  0.55 0.1 0  0.55 0.9 0  1 0.9 0  1 1 0  0 1 0  0 0.9 0  0.45 0.9 0  0.45 0.1 0  0 0.1 0  0 0 3  1 0 3  1 0.1 3  0.55 0.1 3  0.55 0.9 3  1 0.9 3  1 1 3  0 1 3  0 0.9 3  0.45 0.9 3  0.45 0.1 3  0 0.1 3  0.09999999999981467 0 0  0.1999999999995579 0 0  0.2999999999992664 0 0  0.3999999999989749 0 0  0.4999999999986943 0 0  0.5999999999989468 0 0  0.69999999999921 0 0  0.7999999999994734 0 0  0.8999999999997368 0 0  0.9100000000002904 0.1 0  0.8200000000005419 0.1 0  0.7300000000004594 0.1 0  0.6400000000001429 0.1 0  0.55 0.1999999999998373 0  0.55 0.2999999999995446 0  0.55 0.3999999999992517 0  0.55 0.4999999999989587 0  0.55 0.5999999999992082 0  0.55 0.6999999999994794 0  0.55 0.7999999999997506 0  0.6399999999997097 0.9 0  0.7299999999994582 0.9 0  0.8199999999995407 0.9 0  0.9099999999998571 0.9 0  0.8999999999995836 1 0  0.7999999999999998 1 0  0.7000000000006934 1 0  0.6000000000013869 1 0  0.5000000000020587 1 0  0.4000000000016644 1 0  0.3000000000012483 1 0  0.2000000000008322 1 0  0.100000000000416 1 0  0.08999999999980426 0.9 0  0.1799999999995429 0.9 0  0.2699999999995232 0.9 0  0.3599999999997603 0.9 0  0.45 0.8000000000001194 0  0.45 0.7000000000004121 0  0.45 0.6000000000007266 0  0.45 0.5000000000010305 0  0.45 0.400000000000781 0  0.45 0.3000000000005206 0  0.45 0.2000000000002494 0  0.3600000000001345 0.1 0  0.2700000000004186 0.1 0  0.180000000000462 0.1 0  0.09000000000023223 0.1 0  0.09999999999981467 0 3  0.1999999999995579 0 3  0.2999999999992664 0 3  0.3999999999989749 0 3  0.4999999999986943 0 3  0.5999999999989468 0 3  0.69999999999921 0 3  0.7999999999994734 0 3  0.8999999999997368 0 3  0.9100000000002904 0.1 3  0.8200000000005419 0.1 3  0.7300000000004594 0.1 3  0.6400000000001429 0.1 3  0.55 0.1999999999998373 3  0.55 0.2999999999995446 3  0.55 0.3999999999992517 3  0.55 0.4999999999989587 3  0.55 0.5999999999992082 3  0.55 0.6999999999994794 3  0.55 0.7999999999997506 3  0.6399999999997097 0.9 3  0.7299999999994582 0.9 3  0.8199999999995407 0.9 3  0.9099999999998571 0.9 3  0.8999999999995836 1 3  0.7999999999999998 1 3  0.7000000000006934 1 3  0.6000000000013869 1 3  0.5000000000020587 1 3  0.4000000000016644 1 3  0.3000000000012483 1 3  0.2000000000008322 1 3  0.100000000000416 1 3  0.08999999999980426 0.9 3  0.1799999999995429 0.9 3  0.2699999999995232 0.9 3  0.3599999999997603 0.9 3  0.45 0.8000000000001194 3  0.45 0.7000000000004121 3  0.45 0.6000000000007266 3  0.45 0.5000000000010305 3  0.45 0.400000000000781 3  0.45 0.3000000000005206 3  0.45 0.2000000000002494 3  0.3600000000001345 0.1 3  0.2700000000004186 0.1 3  0.180000000000462 0.1 3  0.09000000000023223 0.1 3  0 0 0.09999999999955492  0 0 0.1999999999991203  0 0 0.2999999999987617  0 0 0.3999999999983593  0 0 0.4999999999978253  0 0 0.5999999999974546  0 0 0.6999999999970983  0 0 0.799999999996742  0 0 0.8999999999963859  0 0 0.9999999999960294  0 0 1.099999999995673  0 0 1.199999999995317  0 0 1.299999999994961  0 0 1.399999999994604  0 0 1.499999999994291  0 0 1.599999999994632  0 0 1.699999999995016  0 0 1.799999999995399  0 0 1.899999999995782  0 0 1.999999999996166  0 0 2.099999999996549  0 0 2.199999999996932  0 0 2.299999999997316  0 0 2.3999999999977  0 0 2.499999999998083  0 0 2.599999999998466  0 0 2.69999999999885  0 0 2.799999999999233  0 0 2.899999999999617  1 0 0.09999999999955492  1 0 0.1999999999991203  1 0 0.2999999999987617  1 0 0.3999999999983593  1 0 0.4999999999978253  1 0 0.5999999999974546  1 0 0.6999999999970983  1 0 0.799999999996742  1 0 0.8999999999963859  1 0 0.9999999999960294  1 0 1.099999999995673  1 0 1.199999999995317  1 0 1.299999999994961  1 0 1.399999999994604  1 0 1.499999999994291  1 0 1.599999999994632  1 0 1.699999999995016  1 0 1.799999999995399  1 0 1.899999999995782  1 0 1.999999999996166  1 0 2.099999999996549  1 0 2.199999999996932  1 0 2.299999999997316  1 0 2.3999999999977  1 0 2.499999999998083  1 0 2.599999999998466  1 0 2.69999999999885  1 0 2.799999999999233  1 0 2.899999999999617  1 0.1 0.09999999999955492  1 0.1 0.1999999999991203  1 0.1 0.2999999999987617  1 0.1 0.3999999999983593  1 0.1 0.4999999999978253  1 0.1 0.5999999999974546  1 0.1 0.6999999999970983  1 0.1 0.799999999996742  1 0.1 0.8999999999963859  1 0.1 0.9999999999960294  1 0.1 1.099999999995673  1 0.1 1.199999999995317  1 0.1 1.299999999994961  1 0.1 1.399999999994604  1 0.1 1.499999999994291  1 0.1 1.599999999994632  1 0.1 1.699999999995016  1 0.1 1.799999999995399  1 0.1 1.899999999995782  1 0.1 1.999999999996166  1 0.1 2.099999999996549  1 0.1 2.199999999996932  1 0.1 2.299999999997316  1 0.1 2.3999999999977  1 0.1 2.499999999998083  1 0.1 2.599999999998466  1 0.1 2.69999999999885  1 0.1 2.799999999999233  1 0.1 2.899999999999617  0.55 0.1 0.09999999999955492  0.55 0.1 0.1999999999991203  0.55 0.1 0.2999999999987617  0.55 0.1 0.3999999999983593  0.55 0.1 0.4999999999978253  0.55 0.1 0.5999999999974546  0.55 0.1 0.6999999999970983  0.55 0.1 0.799999999996742  0.55 0.1 0.8999999999963859  0.55 0.1 0.9999999999960294  0.55 0.1 1.099999999995673  0.55 0.1 1.199999999995317  0.55 0.1 1.299999999994961  0.55 0.1 1.399999999994604  0.55 0.1 1.499999999994291  0.55 0.1 1.599999999994632  0.55 0.1 1.699999999995016  0.55 0.1 1.799999999995399  0.55 0.1 1.899999999995782  0.55 0.1 1.999999999996166  0.55 0.1 2.099999999996549  0.55 0.1 2.199999999996932  0.55 0.1 2.299999999997316  0.55 0.1 2.3999999999977  0.55 0.1 2.499999999998083  0.55 0.1 2.599999999998466  0.55 0.1 2.69999999999885  0.55 0.1 2.799999999999233  0.55 0.1 2.899999999999617  0.55 0.9 0.09999999999955492  0.55 0.9 0.1999999999991203  0.55 0.9 0.2999999999987617  0.55 0.9 0.3999999999983593  0.55 0.9 0.4999999999978253  0.55 0.9 0.5999999999974546  0.55 0.9 0.6999999999970983  0.55 0.9 0.799999999996742  0.55 0.9 0.8999999999963859  0.55 0.9 0.9999999999960294  0.55 0.9 1.099999999995673  0.55 0.9 1.199999999995317  0.55 0.9 1.299999999994961  0.55 0.9 1.399999999994604  0.55 0.9 1.499999999994291  0.55 0.9 1.599999999994632  0.55 0.9 1.699999999995016  0.55 0.9 1.799999999995399  0.55 0.9 1.899999999995782  0.55 0.9 1.999999999996166  0.55 0.9 2.099999999996549  0.55 0.9 2.199999999996932  0.55 0.9 2.299999999997316  0.55 0.9 2.3999999999977  0.55 0.9 2.499999999998083  0.55 0.9 2.599999999998466  0.55 0.9 2.69999999999885  0.55 0.9 2.799999999999233  0.55 0.9 2.899999999999617  1 0.9 0.09999999999955492  1 0.9 0.1999999999991203  1 0.9 0.2999999999987617  1 0.9 0.3999999999983593  1 0.9 0.4999999999978253  1 0.9 0.5999999999974546  1 0.9 0.6999999999970983  1 0.9 0.799999999996742  1 0.9 0.8999999999963859  1 0.9 0.9999999999960294  1 0.9 1.099999999995673  1 0.9 1.199999999995317  1 0.9 1.299999999994961  1 0.9 1.399999999994604  1 0.9 1.499999999994291  1 0.9 1.599999999994632  1 0.9 1.699999999995016  1 0.9 1.799999999995399  1 0.9 1.899999999995782  1 0.9 1.999999999996166  1 0.9 2.099999999996549  1 0.9 2.199999999996932  1 0.9 2.299999999997316  1 0.9 2.3999999999977  1 0.9 2.499999999998083  1 0.9 2.599999999998466  1 0.9 2.69999999999885  1 0.9 2.799999999999233  1 0.9 2.899999999999617  1 1 0.09999999999955492  1 1 0.1999999999991203  1 1 0.2999999999987617  1 1 0.3999999999983593  1 1 0.4999999999978253  1 1 0.5999999999974546  1 1 0.6999999999970983  1 1 0.799999999996742  1 1 0.8999999999963859  1 1 0.9999999999960294  1 1 1.099999999995673  1 1 1.199999999995317  1 1 1.299999999994961  1 1 1.399999999994604  1 1 1.499999999994291  1 1 1.599999999994632  1 1 1.699999999995016  1 1 1.799999999995399  1 1 1.899999999995782  1 1 1.999999999996166  1 1 2.099999999996549  1 1 2.199999999996932  1 1 2.299999999997316  1 1 2.3999999999977  1 1 2.499999999998083  1 1 2.599999999998466  1 1 2.69999999999885  1 1 2.799999999999233  1 1 2.899999999999617  0 1 0.09999999999955492  0 1 0.1999999999991203  0 1 0.2999999999987617  0 1 0.3999999999983593  0 1 0.4999999999978253  0 1 0.5999999999974546  0 1 0.6999999999970983  0 1 0.799999999996742  0 1 0.8999999999963859  0 1 0.9999999999960294  0 1 1.099999999995673  0 1 1.199999999995317  0 1 1.299999999994961  0 1 1.399999999994604  0 1 1.499999999994291  0 1 1.599999999994632  0 1 1.699999999995016  0 1 1.799999999995399  0 1 1.899999999995782  0 1 1.999999999996166  0 1 2.099999999996549  0 1 2.199999999996932  0 1 2.299999999997316  0 1 2.3999999999977  0 1 2.499999999998083  0 1 2.599999999998466  0 1 2.69999999999885  0 1 2.799999999999233  0 1 2.899999999999617  0 0.9 0.09999999999955492  0 0.9 0.1999999999991203  0 0.9 0.2999999999987617  0 0.9 0.3999999999983593  0 0.9 0.4999999999978253  0 0.9 0.5999999999974546  0 0.9 0.6999999999970983  0 0.9 0.799999999996742  0 0.9 0.8999999999963859  0 0.9 0.9999999999960294  0 0.9 1.099999999995673  0 0.9 1.199999999995317  0 0.9 1.299999999994961  0 0.9 1.399999999994604  0 0.9 1.499999999994291  0 0.9 1.599999999994632  0 0.9 1.699999999995016  0 0.9 1.799999999995399  0 0.9 1.899999999995782  0 0.9 1.999999999996166  0 0.9 2.099999999996549  0 0.9 2.199999999996932  0 0.9 2.299999999997316  0 0.9 2.3999999999977  0 0.9 2.499999999998083  0 0.9 2.599999999998466  0 0.9 2.69999999999885  0 0.9 2.799999999999233  0 0.9 2.899999999999617  0.45 0.9 0.09999999999955492  0.45 0.9 0.1999999999991203  0.45 0.9 0.2999999999987617  0.45 0.9 0.3999999999983593  0.45 0.9 0.4999999999978253  0.45 0.9 0.5999999999974546  0.45 0.9 0.6999999999970983  0.45 0.9 0.799999999996742  0.45 0.9 0.8999999999963859  0.45 0.9 0.9999999999960294  0.45 0.9 1.099999999995673  0.45 0.9 1.199999999995317  0.45 0.9 1.299999999994961  0.45 0.9 1.399999999994604  0.45 0.9 1.499999999994291  0.45 0.9 1.599999999994632  0.45 0.9 1.699999999995016  0.45 0.9 1.799999999995399  0.45 0.9 1.899999999995782  0.45 0.9 1.999999999996166  0.45 0.9
[...]
<PointData  Vectors="f_508"> 
<DataArray  type="Float64"  Name="f_508"  NumberOfComponents="3" format="ascii">0.0000000000000000e+00 0.0000000000000000e+00 0.0000000000000000e+00  0.0000000000000000e+00 0.0000000000000000e+00 0.0000000000000000e+00  0.0000000000000000e+00 0.0000000000000000e+00 0.0000000000000000e+00  0.0000000000000000e+00 0.0000000000000000e+00 0.0000000000000000e+00  0.0000000000000000e+00 0.0000000000000000e+00 0.0000000000000000e+00  0.0000000000000000e+00 0.0000000000000000e+00 0.0000000000000000e+00  0.0000000000000000e+00 0.0000000000000000e+00 0.0000000000000000e+00  0.0000000000000000e+00 0.0000000000000000e+00 0.0000000000000000e+00  0.0000000000000000e+00 0.0000000000000000e+00 0.0000000000000000e+00  0.0000000000000000e+00 0.0000000000000000e+00 0.0000000000000000e+00  0.0000000000000000e+00 0.0000000000000000e+00 0.0000000000000000e+00  0.0000000000000000e+00 0.0000000000000000e+00 0.0000000000000000e+00  -1.9717837318063208e-03 2.9567280304035765e-01 4.2687382619793872e-02  4.4091275258590018e-03 3.0018990320941796e-01 4.2345520384398733e-02  -7.6776021288518510e-04 3.0018112176668293e-01 3.2122561751380410e-02  8.1789276520607003e-04 2.7937964956988282e-01 3.4385104377144905e-02  -6.8865514251557761e-04 2.7901903521728272e-01 -3.4175389427410399e-02  5.7819894805985061e-04 2.9574922488753591e-01 -3.1991602232280078e-02  -3.6853207061264370e-03 2.9577645853997997e-01 -4.2256039349374115e-02  1.7507821722209968e-03 2.9388677435036237e-01 -4.2478422650775671e-02  -1.9845236097114148e-03 2.9388742496812964e-01 -3.2279946304291221e-02  -8.4050858357918715e-04 2.7902380645811453e-01 -3.4136772055786142e-02  9.7350863618316387e-04 2.7928140621927144e-01 3.4393424114437500e-02  2.3419084715154176e-03 2.9565384915230791e-01 3.2534150088740936e-02  0.0000000000000000e+00 0.0000000000000000e+00 0.0000000000000000e+00  0.0000000000000000e+00 0.0000000000000000e+00 0.0000000000000000e+00  0.0000000000000000e+00 0.0000000000000000e+00 0.0000000000000000e+00  0.0000000000000000e+00 0.0000000000000000e+00 0.0000000000000000e+00  0.0000000000000000e+00 0.0000000000000000e+00 0.0000000000000000e+00  0.0000000000000000e+00 0.0000000000000000e+00 0.0000000000000000e+00  0.0000000000000000e+00 0.0000000000000000e+00 0.0000000000000000e+00  0.0000000000000000e+00 0.0000000000000000e+00 0.0000000000000000e+00  0.0000000000000000e+00 0.0000000000000000e+00 0.0000000000000000e+00  0.0000000000000000e+00 0.0000000000000000e+00 0.0000000000000000e+00  0.0000000000000000e+00 0.0000000000000000e+00 0.0000000000000000e+00  0.0000000000000000e+00 0.0000000000000000e+00 0.0000000000000000e+00  0.0000000000000000e+00 0.0000000000000000e+00 0.0000000000000000e+00  0.0000000000000000e+00 0.0000000000000000e+00 0.0000000000000000e+00  0.0000000000000000e+00 0.0000000000000000e+00 0.0000000000000000e+00  0.0000000000000000e+00 0.0000000000000000e+00 0.0000000000000000e+00  0.0000000000000000e+00 0.0000000000000000e+00 0.0000000000000000e+00  0.0000000000000000e+00 0.0000000000000000e+00 0.0000000000000000e+00  0.0000000000000000e+00 0.0000000000000000e+00 0.0000000000000000e+00  0.0000000000000000e+00 0.0000000000000000e+00 0.0000000000000000e+00  0.0000000000000000e+00 0.0000000000000000e+00 0.0000000000000000e+00  0.0000000000000000e+00 0.0000000000000000e+00 0.0000000000000000e+00  0.0000000000000000e+00 0.0000000000000000e+00 0.0000000000000000e+00  0.0000000000000000e+00 0.0000000000000000e+00 0.0000000000000000e+00  0.0000000000000000e+00 0.0000000000000000e+00 0.0000000000000000e+00  0.0000000000000000e+00 0.0000000000000000e+00 0.0000000000000000e+00  0.0000000000000000e+00 0.0000000000000000e+00 0.0000000000000000e+00  0.0000000000000000e+00 0.0000000000000000e+00 0.0000000000000000e+00  0.0000000000000000e+00 0.0000000000000000e+00 0.0000000000000000e+00  0.0000000000000000e+00 0.0000000000000000e+00 0.0000000000000000e+00  0.0000000000000000e+00 0.0000000000000000e+00 0.0000000000000000e+00  0.0000000000000000e+00 0.0000000000000000e+00 0.0000000000000000e+00  0.0000000000000000e+00 0.0000000000000000e+00 0.0000000000000000e+00  0.0000000000000000e+00 0.0000000000000000e+00 0.0000000000000000e+00  0.0000000000000000e+00 0.0000000000000000e+00 0.0000000000000000e+00  0.0000000000000000e+00 0.0000000000000000e+00 0.0000000000000000e+00  0.0000000000000000e+00 0.0000000000000000e+00 0.0000000000000000e+00  0.0000000000000000e+00 0.0000000000000000e+00 0.0000000000000000e+00  0.0000000000000000e+00 0.0000000000000000e+00 0.0000000000000000e+00  0.0000000000000000e+00 0.0000000000000000e+00 0.0000000000000000e+00  0.0000000000000000e+00 0.0000000000000000e+00 0.0000000000000000e+00  0.0000000000000000e+00 0.0000000000000000e+00 0.0000000000000000e+00  0.0000000000000000e+00 0.0000000000000000e+00 0.0000000000000000e+00  0.0000000000000000e+00 0.0000000000000000e+00 0.0000000000000000e+00  0.0000000000000000e+00 0.0000000000000000e+00 0.0000000000000000e+00  0.0000000000000000e+00 0.0000000000000000e+00 0.0000000000000000e+00  0.0000000000000000e+00 0.0000000000000000e+00 0.0000000000000000e+00  0.0000000000000000e+00 0.0000000000000000e+00 0.0000000000000000e+00  -1.8985818180612976e-03 2.9122949047452817e-01 4.2851774218399648e-02  -1.6698142540200549e-03 2.8689873414273015e-01 4.3015879173593022e-02  -1.1575484139041972e-03 2.8290319284444354e-01 4.3174034452434285e-02  -1.1948320805172562e-04 2.8026116356824488e-01 4.3305969759589856e-02  1.1768042031495229e-03 2.7925443868918665e-01 4.3494449897884778e-02  2.6443690363088554e-03 2.8080486355435347e-01 4.3323929526926028e-02  3.6925156632245620e-03 2.8476424956324176e-01 4.3044102966822761e-02  4.1636290320563171e-03 2.8970734041773372e-01 4.2806823377201625e-02  4.3241015068809733e-03 2.9487920982154897e-01 4.2567053470494789e-02  -6.9884171731365667e-04 2.9544851368907610e-01 3.2435082152344405e-02  -5.4415797218374277e-04 2.9069659160173611e-01 3.2841978662369792e-02  -4.0556091765284728e-04 2.8620527250204153e-01 3.3350021363581069e-02  -4.6255077220633469e-05 2.8216289312192966e-01 3.3852573612236952e-02  7.5643424289672536e-04 2.7880140777827539e-01 2.5822057028102502e-02  5.5188860083480807e-04 2.7833903524474257e-01 1.7253770017853283e-02  3.4162706958425595e-04 2.7804812890022396e-01 8.7120054630738519e-03  8.1032594994162493e-05 2.7795596791904464e-01 2.1508925229783867e-04  -1.8283990092835887e-04 2.7796290323424144e-01 -8.2946277801805787e-03  -4.2303480684996957e-04 2.7815418610305859e-01 -1.6852090043680212e-02  -6.3903897196888936e-04 2.7855577162232714e-01 -2.5460740158194165e-02  -3.1822743862002618e-04 2.8118193568092104e-01 -3.3646832828331141e-02  2.1761221918166775e-04 2.8428227902286618e-01 -3.3098447570643064e-02  3.7382541953339104e-04 2.8787914129307995e-01 -3.2647612471264312e-02  5.2609143042594414e-04 2.9187072408902343e-01 -3.2285300521702837e-02  -3.6333210924102992e-03 2.9137693427038108e-01 -4.2460408951511507e-02  -3.4163650722355003e-03 2.8708752220268546e-01 -4.2664865253826886e-02  -2.9454673739105178e-03 2.8312645631466293e-01 -4.2860823183735207e-02  -2.1146653893066407e-03 2.8021863869550545e-01 -4.3104584565065669e-02  -7.8317791505976410e-04 2.7897893161296139e-01 -4.3388527571945432e-02  4.1076351091913233e-04 2.8001430531165389e-01 -4.3145599931716003e-02  1.2021891197243986e-03 2.8275399603884060e-01 -4.3036769785832624e-02  1.5438370582681674e-03 2.8628227374012460e-01 -4.2832502496638898e-02  1.6803187895262134e-03 2.9005346026549950e-01 -4.2641538889476784e-02  -1.9036435228000975e-03 2.9043246725128885e-01 -3.2526594278902393e-02  -1.8178817040499780e-03 2.8702287726787207e-01 -3.2828746439028840e-02  -1.6783054947278231e-03 2.8378789627729151e-01 -3.3226522411712457e-02  -1.3822900723533451e-03 2.8089214743570295e-01 -3.3674886213885008e-02  -5.4543684420561552e-04 2.7833255194325618e-01 -2.5468972327604741e-02  -3.4925060378603528e-04 2.7798266877188282e-01 -1.6856267174571234e-02  -1.6191519540100467e-04 2.7773051867555898e-01 -8.3165435200501930e-03  7.0908378657146145e-05 2.7767629199748017e-01 2.0940201737411571e-04  2.9672559485893643e-04 2.7780956276503266e-01 8.7256240170591245e-03  4.8605204580261284e-04 2.7813614181518387e-01 1.7251550105924527e-02  6.2205950028834016e-04 2.7860093473804315e-01 2.5823160243943741e-02  1.3858349137202608e-03 2.8100592257371171e-01 3.4017509021885842e-02  1.9493705193879632e-03 2.8408056312709706e-01 3.3546605684132348e-02  2.1233884898571986e-03 2.8769740347175671e-01 3.3113109144925053e-02  2.2799086332352344e-03 2.9172152350096775e-01 3.2777340994544928e-02  1.7937119617496089e-03 3.1570084509796488e-03 4.9395335687882581e-03  2.5148043603304107e-03 8.3270259555667907e-03 8.9288518812250597e-03  2.7773714538236204e-03 1.5997083683625436e-02 1.2323999719524126e-02  2.6389465874852012e-03 2.4772001716643906e-02 1.5292162093811526e-02  2.3715982600666166e-03 3.4329295201982614e-02 1.7936508666095748e-02  1.9830321602796828e-03 4.4258776767415790e-02 2.0463522688046732e-02  1.5708847384157546e-03 5.4660041609181684e-02 2.2823285639671800e-02  1.2392769638061671e-03 6.5164626306098025e-02 2.4994715372337196e-02  8.6691232813167142e-04 7.5756391503611548e-02 2.7072016375011183e-02  5.8252279935415636e-04 8.6446074586933638e-02 2.8951006083895059e-02  3.3653002055449873e-04 9.6991180365995702e-02 3.0696085881211421e-02  1.6224931981078430e-04 1.0754082287690067e-01 3.2288357276451983e-02  -3.3032213613492297e-05 1.1807055044742613e-01 3.3741220031947280e-02  -1.4724557697501245e-04 1.2856787215039001e-01 3.5071013084996092e-02  -2.1510105507246404e-04 1.3902402220509832e-01 3.6261774182656629e-02  -3.2353238674440361e-04 1.4954286481058590e-01 3.7355125703314479e-02  -4.1740892332668429e-04 1.6014465831971464e-01 3.8330982832925832e-02  -5.3305963275541502e-04 1.7078810584510390e-01 3.9195249225596307e-02  -6.4068852162447217e-04 1.8149615512511519e-01 3.9964371249041841e-02  -7.3769787416828566e-04 1.9218583371570006e-01 4.0611335037091467e-02  -8.0737174933666095e-04 2.0282091974144123e-01 4.1153496581697695e-02  -8.4403618724900856e-04 2.1333855887790013e-01 4.1591648991328521e-02  -8.8213809954511995e-04 2.2376205044641542e-01 4.1921476878514198e-02  -9.4504482940485851e-04 2.3409865199401245e-01 4.2178649495621792e-02  -1.0033673810788848e-03 2.4436820608252743e-01 4.2411154387234855e-02  -1.1225947543556558e-03 2.5461093130662094e-01 4.2571399700314573e-02  -1.2669901230981282e-03 2.6492779426062513e-01 4.2670327894516198e-02  -1.4655437389712385e-03 2.7518778220658913e-01 4.2711002536583935e-02  -1.6993423544412506e-03 2.8543972128470313e-01 4.2682567214051753e-02  -1.7000828663482361e-03 2.8334743139864118e-03 5.0100588512764456e-03  -2.5377711130507427e-03 8.0598878031843454e-03 8.9991601970376058e-03  -2.7229021074792700e-03 1.5720945582618988e-02 1.2361875195324010e-02  -2.5412418245808147e-03 2.4833562357028265e-02 1.5215085105483257e-02  -2.2339487251518348e-03 3.4474579531884347e-02 1.7895385315481863e-02  -1.8421807612657617e-03 4.4696117218413829e-02 2.0304521469516348e-02  -1.3972133009407899e-03 5.5123681847646502e-02 2.2641142671212800e-02  -1.0239137451073092e-03 6.5697359482804779e-02 2.4786650223000029e-02  -6.3696796766401608e-04 7.6327232131450928e-02 2.6803554838638312e-02  -2.3315902143458868e-04 8.7018604373245920e-02 2.8649774229393750e-02  8.3508682940939858e-05 9.7679235906077772e-02 3.0356335744759069e-02  3.8953243850247147e-04 1.0832598207973383e-01 3.1960759395008698e-02  7.1436140393741254e-04 1.1906288284490449e-01 3.3448245526205227e-02  9.5384462504654428e-04 1.2985788091020123e-01 3.4779114764000654e-02  1.1531374896278028e-03 1.4062845823387760e-01 3.5955584543330164e-02  1.3798233277506568e-03 1.5140954413825397e-01 3.7028201573047932e-02  1.5964562578912416e-03 1.6223940524198002e-01 3.7988937225809108e-02  1.8261488254652715e-03 1.7309577165864723e-01 3.8847748292355315e-02  2.0381714095769393e-03 1.8398156799860818e-01 3.9612321630446583e-02  2.2272202423736956e-03 1.9483120161431308e-01 4.0253122576877104e-02  2.4043521766284283e-03 2.0565232522275889e-01 4.0801303892490197e-02  2.5768081297185379e-03 2.1634475719300320e-01 4.1222360164028395e-02  2.7269132770509413e-03 2.2700728743736692e-01 4.1602475255442480e-02  2.9350940211642735e-03 2.3758102017634405e-01 4.1917338775986746e-02  3.0919197026493760e-03 2.4822476452901035e-01 4.2166761703410514e-02  3.2629281600289558e-03 2.5877037206983239e-01 4.2305481492874719e-02  3.5126040419373229e-03 2.6926264976544717e-01 4.2344408376505355e-02  3.7756535799917329e-03 2.7963469790006729e-01 4.2342580579499578e-02  4.0768342813381668e-03 2.8989549759761041e-01 4.2330341023241368e-02  -1.5211631934872539e-03 2.1026954264146123e-03 1.5160456612743826e-03  -2.5259511451666146e-03 7.5155414800068144e-03 2.7400625049234981e-03  -3.0789738528173519e-03 1.5202027264727734e-02 4.1948241306672242e-03  -3.1896459050670110e-03 2.4391705259744250e-02 6.1262357695438616e-03  -3.2468134931266665e-03 3.4063751565667218e-02 8.1806807957908317e-03  -3.2662503517476254e-03 4.4229649972616053e-02 1.0262371543235282e-02  -3.1677196492852031e-03 5.4671602247688349e-02 1.2353022460150466e-02  -3.0064048733509513e-03 6.5283211884299072e-02 1.4384266753294113e-02  -2.9242109595418288e-03 7.5913382767348506e-02 1.6307365838654945e-02  -2.8483444496247511e-03 8.6641529572025699e-02 1.8108186748769059e-02  -2.6913536309615730e-03 9.7310816203171738e-02 1.9810607166491304e-02  -2.4933486792008360e-03 1.0799377280133077e-01 2.1346037108414775e-02  -2.4034226191631063e-03 1.1878012522381026e-01 2.2765868353465769e-02  -2.2920541401246757e-03 1.2958026544734227e-01 2.4059005126907094e-02  -2.1581248933616451e-03 1.4038202426114774e-01 2.5245155140098723e-02  -2.0865171618207686e-03 1.5119880949180789e-01 2.6298957852166981e-02  -1.9569561025499166e-03 1.6203413024546456e-01 2.7229182300186797e-02  -1.8437407955370761e-03 1.7291009703806948e-01 2.8058846994592743e-02  -1.7424656166435922e-03 1.8381465824813081e-01 2.8810979241894796e-02  -1.6461826275195484e-03 1.9469657781910696e-01 2.9486806761188530e-02  -1.5351517972337122e-03 2.0552758594611095e-01 3.0080874689597321e-02  -1.4802158379815494e-03 2.1627783991581684e-01 3.0633513117569056e-02  -1.4422289583165850e-03 2.2692850095869097e-01 3.1049807576787134e-02  -1.3903039980736756e-03 2.3754142135812362e-01 3.1399545889010498e-02  -1.3389471963336686e-03 2.4815457053106416e-01 3.1688823485239201e-02  -1.3537046103825896e-03 2.5876255524650821e-01 3.1901625640107192e-02  -1.3353663679872738e-03 2.6928339539677210e-01 3.2038463631878879e-02  -1.2067229646342387e-03 2.7964831601776946e-01 3.2109235538230550e-02  -1.0145250591673579e-03 2.8990922224359877e-01 3.2139675503168832e-02  -2.2499683161735149e-04 3.4750271146484226e-03 2.4084772275662319e-03  -2.8270765433315958e-04 8.8746463585565125e-03 5.2260313524548213e-03  -1.8474755918255261e-04 1.5350342974371408e-02 8.0256165556851344e-03  -2.5966320020873185e-04 2.2754253864948042e-02 1.0453121849355202e-02  -2.0227242832979636e-04 3.0773650651108524e-02 1.3078340167710608e-02  -2.4869356897703300e-04 3.9309580040263629e-02 1.5525172009778177e-02  -3.1013890821564695e-04 4.8281172562560482e-02 1.7610023374853127e-02  -2.3814986987002806e-04 5.7552883679522333e-02 1.9651370084504956e-02  -2.2308251091137570e-04 6.7053848287987508e-02 2.1406771573353557e-02  -1.7741697840820768e-04 7.6886703848394730e-02 2.2986524288625569e-02  -2.1346071496239713e-04 8.6793014377808619e-02 2.4479737758915730e-02  -7.0758898466378542e-05 9.7000634358334420e-02 2.5773202272956711e-02  -1.4136022262254355e-05 1.0736797517085014e-01 2.6935610362794824e-02  1.2825044081496317e-04 1.1761686088048647e-01 2.8176663306063495e-02  4.3662208661388464e-05 1.2804709838089720e-01 2.9082517036013156e-02  9.0889081594431288e-05 1.3848939630220916e-01 2.9979124300051709e-02  2.1378385598312972e-04 1.4904132255333527e-01 3.0648109912560988e-02  2.0745691648479565e-04 1.5955578555498384e-01 3.1356939784176273e-02  2.3101777410699232e-04 1.7006325651912826e-01 3.1947808566452698e-02  2.7493973148479941e-04 1.8053216430386676e-01 3.2417609175624938e-02  3.4160682068964590e-04 1.9097551290557799e-01 3.2803814964466937e-02  3.9230489013331206e-04 2.0134261910360046e-01 3.3203395751817438e-02  4.7390213121092082e-04 2.1158760405158639e-01 3.3512259520680550e-02  4.9472060152392261e-04 2.2170694871317523e-01 3.3752876390662857e-02  5.3907480736059500e-04 2.3168739084019577e-01 3.3922177841424879e-02  4.9063821251008716e-04 2.4156945043556918e-01 3.4027852112620348e-02  5.9571676923889322e-04 2.5129840657629365e-01 3.4158376420081474e-02  5.4636106859800432e-04 2.6079049397499232e-01 3.4254864598679532e-02  4.8514806450326511e-04 2.7022789477441939e-01 3.4276895636840110e-02  3.0465194847439746e-04 3.3676272711938814e-03 -2.3416310203619520e-03  1.5635894795840087e-04 8.7857096491658383e-03 -5.3550136469602168e-03  2.7797951921029068e-04 1.5272817672371562e-02 -8.0905721024331478e-03  2.3896751947408913e-04 2.2599078136994327e-02 -1.0762215412082082e-02  2.8689031916158083e-04 3.0572779036042389e-02 -1.3303044347822653e-02  2.5731136082581723e-04 3.9013471027365340e-02 -1.5462325545256870e-02  2.3790079038742474e-04 4.7871882154296767e-02 -1.7526875849053165e-02  2.2145019216835367e-04 5.7068926554111742e-02 -1.9497708840059812e-02  1.0689106478119427e-04 6.6596121621054855e-02 -2.1356533754497833e-02  1.0494303116587084e-04 7.6341368301739099e-02 -2.2929434010534856e-02  9.6745987555419557e-05 8.6291169811161889e-02 -2.4388132431701896e-02  -1.7147433197263770e-05 9.6466885550021891e-02 -2.5632194545018638e-02  -8.2860264505760044e-05 1.0675145565376111e-01 -2.6881447169588624e-02  -2.0941511750565564e-04 1.1704776968991748e-01 -2.7992916409625312e-02  -1.4296998004407476e-04 1.2750451973405716e-01 -2.8952086488392991e-02  -1.5385117610446818e-04 1.3802320473206312e-01 -2.9829054496221811e-02  -2.7378872508315017e-04 1.4861991386860965e-01 -3.0573690200092440e-02  -2.8652287584507338e-04 1.5910121065984981e-01 -3.1230041628073021e-02  -2.6930830503084548e-04 1.6961061803470071e-01 -3.1803746125597068e-02  -2.6430596282719904e-04 1.8006577381957944e-01 -3.2281319111019016e-02  -4.3399885334624192e-04 1.9048377326742527e-01 -3.2716752375269914e-02  -3.7073459466163266e-04 2.0079440240144042e-01 -3.3133111724572700e-02  -4.3140097188146780e-04 2.1104022726625593e-01 -3.3332870865689181e-02  -4.5074669532622447e-04 2.2113020512504356e-01 -3.3542803066348596e-02  -4.7168599323472174e-04 2.3110267833876616e-01 -3.3706798022337836e-02  -3.8555224412550480e-04 2.4095780732123206e-01 -3.3816768556401977e-02  -5.4436182726183351e-04 2.5075071775932034e-01 -3.3891187548188553e-02  -6.3266848057824633e-04 2.6036202367322936e-01 -3.3985836799893428e-02  -5.0633994261656463e-04 2.6983338420142011e-01 -3.4080588491923559e-02  1.4729642108704921e-03 1.8733263057691108e-03 -1.4188832115076962e-03  2.3090473210330611e-03 7.2645358416966689e-03 -2.8629628716391260e-03  2.7653105430749283e-03 1.4365529021760507e-02 -4.5388929554402296e-03  3.1400797178460591e-03 2.3183728639900782e-02 -6.1594895862393155e-03  3.1434377867020054e-03 3.2786664666418427e-02 -8.2496240253445170e-03  3.0806746152004885e-03 4.2660799915210559e-02 -1.0364510521914963e-02  2.9859125692453200e-03 5.2792173803825976e-02 -1.2434292528048389e-02  2.8708171605908556e-03 6.3067498638068153e-02 -1.4444481846868192e-02  2.7494149479792484e-03 7.3493426331975642e-02 -1.6334807679468884e-02  2.6290882178041314e-03 8.4001591527329944e-02 -1.8123017865080915e-02  2.4661560278082255e-03 9.4503708729721969e-02 -1.9785478922785545e-02  2.2690080266238467e-03 1.0509197137530657e-01 -2.1296793988609151e-02  2.1769334988384955e-03 1.1584374112379886e-01 -2.2683152574605972e-02  2.0493390870830663e-03 1.2663975817808612e-01 -2.3957462306725560e-02  1.8873628666830650e-03 1.3743513767180396e-01 -2.5143132240321199e-02  1.7969920050382470e-03 1.4824522625536543e-01 -2.6214022316454314e-02  1.6682593874808420e-03 1.5904