<?xml version="1.0"?>
<VTKFile type="UnstructuredGrid"  version="0.1"  >
<UnstructuredGrid>
<Piece  NumberOfPoints="2226" NumberOfCells="6336">
<Points>
<DataArray  type="Float64"  NumberOfComponents="3"  format="ascii">0 0 0  1 0 0  1 0.1 0  0.55 0.1 0  0.55 0.9 0  1 0.9 0  1 1 0  0 1 0  0 0.9 0  0.45 0.9 0  0.45 0.1 0  0 0.1 0  0 0 3  1 0 3  1 0.1 3  0.55 0.1 3  0.55 0.9 3  1 0.9 3  1 1 3  0 1 3  0 0.9 3  0.45 0.9 3  0.45 0.1 3  0 0.1 3  0.09999999999981467 0 0  0.1999999999995579 0 0  0.2999999999992664 0 0  0.3999999999989749 0 0  0.4999999999986943 0 0  0.5999999999989468 0 0  0.69999999999921 0 0  0.7999999999994734 0 0  0.8999999999997368 0 0  0.9100000000002904 0.1 0  0.8200000000005419 0.1 0  0.7300000000004594 0.1 0  0.6400000000001429 0.1 0  0.55 0.1999999999998373 0  0.55 0.2999999999995446 0  0.55 0.3999999999992517 0  0.55 0.4999999999989587 0  0.55 0.5999999999992082 0  0.55 0.6999999999994794 0  0.55 0.7999999999997506 0  0.6399999999997097 0.9 0  0.7299999999994582 0.9 0  0.8199999999995407 0.9 0  0.9099999999998571 0.9 0  0.8999999999995836 1 0  0.7999999999999998 1 0  0.7000000000006934 1 0  0.6000000000013869 1 0  0.5000000000020587 1 0  0.4000000000016644 1 0  0.3000000000012483 1 0  0.2000000000008322 1 0  0.100000000000416 1 0  0.08999999999980426 0.9 0  0.1799999999995429 0.9 0  0.2699999999995232 0.9 0  0.3599999999997603 0.9 0  0.45 0.8000000000001194 0  0.45 0.7000000000004121 0  0.45 0.6000000000007266 0  0.45 0.5000000000010305 0  0.45 0.400000000000781 0  0.45 0.3000000000005206 0  0.45 0.2000000000002494 0  0.3600000000001345 0.1 0  0.2700000000004186 0.1 0  0.180000000000462 0.1 0  0.09000000000023223 0.1 0  0.09999999999981467 0 3  0.1999999999995579 0 3  0.2999999999992664 0 3  0.3999999999989749 0 3  0.4999999999986943 0 3  0.5999999999989468 0 3  0.69999999999921 0 3  0.7999999999994734 0 3  0.8999999999997368 0 3  0.9100000000002904 0.1 3  0.8200000000005419 0.1 3  0.7300000000004594 0.1 3  0.6400000000001429 0.1 3  0.55 0.1999999999998373 3  0.55 0.2999999999995446 3  0.55 0.3999999999992517 3  0.55 0.4999999999989587 3  0.55 0.5999999999992082 3  0.55 0.6999999999994794 3  0.55 0.7999999999997506 3  0.6399999999997097 0.9 3  0.7299999999994582 0.9 3  0.8199999999995407 0.9 3  0.9099999999998571 0.9 3  0.8999999999995836 1 3  0.7999999999999998 1 3  0.7000000000006934 1 3  0.6000000000013869 1 3  0.5000000000020587 1 3  0.4000000000016644 1 3  0.3000000000012483 1 3  0.2000000000008322 1 3  0.100000000000416 1 3  0.08999999999980426 0.9 3  0.1799999999995429 0.9 3  0.2699999999995232 0.9 3  0.3599999999997603 0.9 3  0.45 0.8000000000001194 3  0.45 0.7000000000004121 3  0.45 0.6000000000007266 3  0.45 0.5000000000010305 3  0.45 0.400000000000781 3  0.45 0.3000000000005206 3  0.45 0.2000000000002494 3  0.3600000000001345 0.1 3  0.2700000000004186 0.1 3  0.180000000000462 0.1 3  0.09000000000023223 0.1 3  0 0 0.09999999999955492  0 0 0.1999999999991203  0 0 0.2999999999987617  0 0 0.3999999999983593  0 0 0.4999999999978253  0 0 0.5999999999974546  0 0 0.6999999999970983  0 0 0.799999999996742  0 0 0.8999999999963859  0 0 0.9999999999960294  0 0 1.099999999995673  0 0 1.199999999995317  0 0 1.299999999994961  0 0 1.399999999994604  0 0 1.499999999994291  0 0 1.599999999994632  0 0 1.699999999995016  0 0 1.799999999995399  0 0 1.899999999995782  0 0 1.999999999996166  0 0 2.099999999996549  0 0 2.199999999996932  0 0 2.299999999997316  0 0 2.3999999999977  0 0 2.499999999998083  0 0 2.599999999998466  0 0 2.69999999999885  0 0 2.799999999999233  0 0 2.899999999999617  1 0 0.09999999999955492  1 0 0.1999999999991203  1 0 0.2999999999987617  1 0 0.3999999999983593  1 0 0.4999999999978253  1 0 0.5999999999974546  1 0 0.6999999999970983  1 0 0.799999999996742  1 0 0.8999999999963859  1 0 0.9999999999960294  1 0 1.099999999995673  1 0 1.199999999995317  1 0 1.299999999994961  1 0 1.399999999994604  1 0 1.499999999994291  1 0 1.599999999994632  1 0 1.699999999995016  1 0 1.799999999995399  1 0 1.899999999995782  1 0 1.999999999996166  1 0 2.099999999996549  1 0 2.199999999996932  1 0 2.299999999997316  1 0 2.3999999999977  1 0 2.499999999998083  1 0 2.599999999998466  1 0 2.69999999999885  1 0 2.799999999999233  1 0 2.899999999999617  1 0.1 0.09999999999955492  1 0.1 0.1999999999991203  1 0.1 0.2999999999987617  1 0.1 0.3999999999983593  1 0.1 0.4999999999978253  1 0.1 0.5999999999974546  1 0.1 0.6999999999970983  1 0.1 0.799999999996742  1 0.1 0.8999999999963859  1 0.1 0.9999999999960294  1 0.1 1.099999999995673  1 0.1 1.199999999995317  1 0.1 1.299999999994961  1 0.1 1.399999999994604  1 0.1 1.499999999994291  1 0.1 1.599999999994632  1 0.1 1.699999999995016  1 0.1 1.799999999995399  1 0.1 1.899999999995782  1 0.1 1.999999999996166  1 0.1 2.099999999996549  1 0.1 2.199999999996932  1 0.1 2.299999999997316  1 0.1 2.3999999999977  1 0.1 2.499999999998083  1 0.1 2.599999999998466  1 0.1 2.69999999999885  1 0.1 2.799999999999233  1 0.1 2.899999999999617  0.55 0.1 0.09999999999955492  0.55 0.1 0.1999999999991203  0.55 0.1 0.2999999999987617  0.55 0.1 0.3999999999983593  0.55 0.1 0.4999999999978253  0.55 0.1 0.5999999999974546  0.55 0.1 0.6999999999970983  0.55 0.1 0.799999999996742  0.55 0.1 0.8999999999963859  0.55 0.1 0.9999999999960294  0.55 0.1 1.099999999995673  0.55 0.1 1.199999999995317  0.55 0.1 1.299999999994961  0.55 0.1 1.399999999994604  0.55 0.1 1.499999999994291  0.55 0.1 1.599999999994632  0.55 0.1 1.699999999995016  0.55 0.1 1.799999999995399  0.55 0.1 1.899999999995782  0.55 0.1 1.999999999996166  0.55 0.1 2.099999999996549  0.55 0.1 2.199999999996932  0.55 0.1 2.299999999997316  0.55 0.1 2.3999999999977  0.55 0.1 2.499999999998083  0.55 0.1 2.599999999998466  0.55 0.1 2.69999999999885  0.55 0.1 2.799999999999233  0.55 0.1 2.899999999999617  0.55 0.9 0.09999999999955492  0.55 0.9 0.1999999999991203  0.55 0.9 0.2999999999987617  0.55 0.9 0.3999999999983593  0.55 0.9 0.4999999999978253  0.55 0.9 0.5999999999974546  0.55 0.9 0.6999999999970983  0.55 0.9 0.799999999996742  0.55 0.9 0.8999999999963859  0.55 0.9 0.9999999999960294  0.55 0.9 1.099999999995673  0.55 0.9 1.199999999995317  0.55 0.9 1.299999999994961  0.55 0.9 1.399999999994604  0.55 0.9 1.499999999994291  0.55 0.9 1.599999999994632  0.55 0.9 1.699999999995016  0.55 0.9 1.799999999995399  0.55 0.9 1.899999999995782  0.55 0.9 1.999999999996166  0.55 0.9 2.099999999996549  0.55 0.9 2.199999999996932  0.55 0.9 2.299999999997316  0.55 0.9 2.3999999999977  0.55 0.9 2.499999999998083  0.55 0.9 2.599999999998466  0.55 0.9 2.69999999999885  0.55 0.9 2.799999999999233  0.55 0.9 2.899999999999617  1 0.9 0.09999999999955492  1 0.9 0.1999999999991203  1 0.9 0.2999999999987617  1 0.9 0.3999999999983593  1 0.9 0.4999999999978253  1 0.9 0.5999999999974546  1 0.9 0.6999999999970983  1 0.9 0.799999999996742  1 0.9 0.8999999999963859  1 0.9 0.9999999999960294  1 0.9 1.099999999995673  1 0.9 1.199999999995317  1 0.9 1.299999999994961  1 0.9 1.399999999994604  1 0.9 1.499999999994291  1 0.9 1.599999999994632  1 0.9 1.699999999995016  1 0.9 1.799999999995399  1 0.9 1.899999999995782  1 0.9 1.999999999996166  1 0.9 2.099999999996549  1 0.9 2.199999999996932  1 0.9 2.299999999997316  1 0.9 2.3999999999977  1 0.9 2.499999999998083  1 0.9 2.599999999998466  1 0.9 2.69999999999885  1 0.9 2.799999999999233  1 0.9 2.899999999999617  1 1 0.09999999999955492  1 1 0.1999999999991203  1 1 0.2999999999987617  1 1 0.3999999999983593  1 1 0.4999999999978253  1 1 0.5999999999974546  1 1 0.6999999999970983  1 1 0.799999999996742  1 1 0.8999999999963859  1 1 0.9999999999960294  1 1 1.099999999995673  1 1 1.199999999995317  1 1 1.299999999994961  1 1 1.399999999994604  1 1 1.499999999994291  1 1 1.599999999994632  1 1 1.699999999995016  1 1 1.799999999995399  1 1 1.899999999995782  1 1 1.999999999996166  1 1 2.099999999996549  1 1 2.199999999996932  1 1 2.299999999997316  1 1 2.3999999999977  1 1 2.499999999998083  1 1 2.599999999998466  1 1 2.69999999999885  1 1 2.799999999999233  1 1 2.899999999999617  0 1 0.09999999999955492  0 1 0.1999999999991203  0 1 0.2999999999987617  0 1 0.3999999999983593  0 1 0.4999999999978253  0 1 0.5999999999974546  0 1 0.6999999999970983  0 1 0.799999999996742  0 1 0.8999999999963859  0 1 0.9999999999960294  0 1 1.099999999995673  0 1 1.199999999995317  0 1 1.299999999994961  0 1 1.399999999994604  0 1 1.499999999994291  0 1 1.599999999994632  0 1 1.699999999995016  0 1 1.799999999995399  0 1 1.899999999995782  0 1 1.999999999996166  0 1 2.099999999996549  0 1 2.199999999996932  0 1 2.299999999997316  0 1 2.3999999999977  0 1 2.499999999998083  0 1 2.599999999998466  0 1 2.69999999999885  0 1 2.799999999999233  0 1 2.899999999999617  0 0.9 0.09999999999955492  0 0.9 0.1999999999991203  0 0.9 0.2999999999987617  0 0.9 0.3999999999983593  0 0.9 0.4999999999978253  0 0.9 0.5999999999974546  0 0.9 0.6999999999970983  0 0.9 0.799999999996742  0 0.9 0.8999999999963859  0 0.9 0.9999999999960294  0 0.9 1.099999999995673  0 0.9 1.199999999995317  0 0.9 1.299999999994961  0 0.9 1.399999999994604  0 0.9 1.499999999994291  0 0.9 1.599999999994632  0 0.9 1.699999999995016  0 0.9 1.799999999995399  0 0.9 1.899999999995782  0 0.9 1.999999999996166  0 0.9 2.099999999996549  0 0.9 2.199999999996932  0 0.9 2.299999999997316  0 0.9 2.3999999999977  0 0.9 2.499999999998083  0 0.9 2.599999999998466  0 0.9 2.69999999999885  0 0.9 2.799999999999233  0 0.9 2.899999999999617  0.45 0.9 0.09999999999955492  0.45 0.9 0.1999999999991203  0.45 0.9 0.2999999999987617  0.45 0.9 0.3999999999983593  0.45 0.9 0.4999999999978253  0.45 0.9 0.5999999999974546  0.45 0.9 0.6999999999970983  0.45 0.9 0.799999999996742  0.45 0.9 0.8999999999963859  0.45 0.9 0.9999999999960294  0.45 0.9 1.099999999995673  0.45 0.9 1.199999999995317  0.45 0.9 1.299999999994961  0.45 0.9 1.399999999994604  0.45 0.9 1.499999999994291  0.45 0.9 1.599999999994632  0.45 0.9 1.699999999995016  0.45 0.9 1.799999999995399  0.45 0.9 1.899999999995782  0.45 0.9 1.999999999996166  0.45 0.9
[...]
<PointData  Scalars="f_529"> 
<DataArray  type="Float64"  Name="f_529"  format="ascii">9.1697101981941260e-06  1.5833312611442360e-05  1.0213616375438786e-05  1.8438326901920069e-06  8.5997482426881849e-06  1.8549402571580331e-05  5.1168525255177833e-06  2.1631196631184571e-05  1.3528893788192360e-05  1.1049850109653298e-05  1.2048679025375020e-05  1.8557194972025872e-05  2.9874490441208063e-01  3.0319481750502103e-01  3.0189050523810912e-01  2.8147345188531298e-01  2.8108058210613213e-01  2.9746929800350552e-01  2.9879921510538782e-01  2.9694549741947479e-01  2.9565796479373946e-01  2.8108164871439367e-01  2.8136747093430098e-01  2.9744754398527867e-01  1.1326365625269867e-05  2.4449099349370533e-05  3.3006014357750668e-05  8.5167764958286848e-06  3.0135172727638403e-06  1.6396931014046802e-05  1.3770583538532023e-05  1.1705384509943254e-05  9.3465973948406625e-06  -4.3771649797787192e-06  1.1332172654818057e-05  1.1518868585910779e-05  1.9752382545007786e-05  1.5414264423269782e-06  4.5447663460929142e-06  1.8934766957455432e-06  -2.0442216998666990e-08  9.0000130751121809e-07  2.5782164821626871e-06  8.9484420017047528e-08  3.5556048212828386e-06  1.3796627485872112e-05  3.6734314053808563e-07  -7.0686902244575112e-06  7.2012953689300559e-06  1.3470533972223014e-05  6.5570689282428514e-06  1.3864346006300588e-05  3.4261656593663972e-06  5.3170674482219808e-07  2.9057222122977724e-06  3.1782830796041197e-05  3.6917603339026321e-05  -1.0528159889084511e-05  2.4958575984430633e-05  8.4979132790178410e-06  1.5191363134611661e-05  5.4870244813874222e-07  2.8424256394545054e-07  1.4115155146954281e-06  -4.5349610616336437e-07  1.1413536055540554e-06  3.1110711017924352e-06  8.1625671161497642e-07  1.0672344239294309e-05  1.8583004354537391e-06  9.6174247955880838e-06  3.5585322517069277e-05  2.9434588605042628e-01  2.9008869528068826e-01  2.8615551428118985e-01  2.8356925922734189e-01  2.8259952826851165e-01  2.8411789402925408e-01  2.8799608531826554e-01  2.9285816073677129e-01  2.9793952343137542e-01  2.9719787287060401e-01  2.9250040933641913e-01  2.8810782123759554e-01  2.8415634479661939e-01  2.7999427884411443e-01  2.7885279151875553e-01  2.7817964815587176e-01  2.7795086928173263e-01  2.7806641673124721e-01  2.7865095066789813e-01  2.7970834837603648e-01  2.8315507199312095e-01  2.8617609661889198e-01  2.8967566770195874e-01  2.9364704010022091e-01  2.9445071795859129e-01  2.9023840698071629e-01  2.8634326978203800e-01  2.8349867107022247e-01  2.8231282897257765e-01  2.8329858872286717e-01  2.8598704397540853e-01  2.8945086627594119e-01  2.9315334277069383e-01  2.9221551943588692e-01  2.8885978184631289e-01  2.8569747261307232e-01  2.8287205388424946e-01  2.7947744044390915e-01  2.7848839841595863e-01  2.7783390868033520e-01  2.7766631485799442e-01  2.7793073447947692e-01  2.7865161283639323e-01  2.7978105733057185e-01  2.8302991881649836e-01  2.8603581520447535e-01  2.8955802843325584e-01  2.9353812696288095e-01  6.1404604951141774e-03  1.2535012047416449e-02  2.0166387526626285e-02  2.9252859826041817e-02  3.8825843340489136e-02  4.8741764764247679e-02  5.9296404543054085e-02  6.9820183371460204e-02  8.0400191898206505e-02  9.1188672274128052e-02  1.0174743744151547e-01  1.1223406378405340e-01  1.2281888588570236e-01  1.3328353701033671e-01  1.4362154842554797e-01  1.5408716498421698e-01  1.6462037846731126e-01  1.7518362795069087e-01  1.8580253085626619e-01  1.9639418335142239e-01  2.0694509272876702e-01  2.1733549259192400e-01  2.2762824167386650e-01  2.3784151980586360e-01  2.4800561496952186e-01  2.5814075416954169e-01  2.6831203820753291e-01  2.7848326444361382e-01  2.8861297734362767e-01  6.0088406372745731e-03  1.2393064721907330e-02  1.9902068239977824e-02  2.9246650591400455e-02  3.8932640134145165e-02  4.8964141124534170e-02  5.9631360722518095e-02  7.0231013724119787e-02  8.0839290362277008e-02  9.1629001242057487e-02  1.0230020376462139e-01  1.1289463776068409e-01  1.2369615321041612e-01  1.3445334961691222e-01  1.4509880952094820e-01  1.5582464494754061e-01  1.6658700722055211e-01  1.7736531450219920e-01  1.8816351403478579e-01  1.9892326931156681e-01  2.0966255308332654e-01  2.2022255904592078e-01  2.3078265232244802e-01  2.4126626588006803e-01  2.5178632335528373e-01  2.6220105351057443e-01  2.7257185019965813e-01  2.8282092936444098e-01  2.9297641449106970e-01  2.9724202699759924e-03  8.3547233094002828e-03  1.5956479742600473e-02  2.5398546558787295e-02  3.5219177812491370e-02  4.5439930772615114e-02  5.6177433672483741e-02  6.6969947829880513e-02  7.7555113856873650e-02  8.8604006023560694e-02  9.9378140319952166e-02  1.1002087312321884e-01  1.2097890592227285e-01  1.3183693620255421e-01  1.4258928056536568e-01  1.5348461048171858e-01  1.6426667977227699e-01  1.7513477365302299e-01  1.8601905908384964e-01  1.9692446132450805e-01  2.0768693214972736e-01  2.1843091568446238e-01  2.2903394846342501e-01  2.3958069178225427e-01  2.5012388624885484e-01  2.6068965212694162e-01  2.7115697673879380e-01  2.8147967033923321e-01  2.9167311985906841e-01  4.2127514889392830e-03  1.0257207169969028e-02  1.7283587753953288e-02  2.4985787617958107e-02  3.3372450526333135e-02  4.2185938901222013e-02  5.1325431109952677e-02  6.0764382598403992e-02  7.0308585017003683e-02  8.0200039649757832e-02  9.0129236045965802e-02  1.0030136498778422e-01  1.1065107747241332e-01  1.2089656509879537e-01  1.3125963308568261e-01  1.4166224555937343e-01  1.5210539071954965e-01  1.6256680849963162e-01  1.7300031563165094e-01  1.8338390144322220e-01  1.9373320040452807e-01  2.0402872876060746e-01  2.1419973284152385e-01  2.2423704850277468e-01  2.3413192697457705e-01  2.4392229443665284e-01  2.5358332715371085e-01  2.6301682330493459e-01  2.7236344520511530e-01  4.0807721949687329e-03  1.0217401889082451e-02  1.7222525103846892e-02  2.4973133983129121e-02  3.3290073570230221e-02  4.1891700103797759e-02  5.0919126444780305e-02  6.0253393953601658e-02  6.9870905536081024e-02  7.9646841387776196e-02  8.9617365670718388e-02  9.9745268989627670e-02  1.1004802146180469e-01  1.2029633638251663e-01  1.3069713427661922e-01  1.4118276322288054e-01  1.5169133919096375e-01  1.6209143391225234e-01  1.7252759866442458e-01  1.8290095906144618e-01  1.9324612294034021e-01  2.0347413356360411e-01  2.1361991409930792e-01  2.2362761206042536e-01  2.3352047875329074e-01  2.4329310149223085e-01  2.5300511705394485e-01  2.6255138180095494e-01  2.7195576376940306e-01  2.7371576487309236e-03  8.1552934622179350e-03  1.5136672637850707e-02  2.4253805898769642e-02  3.4010618789009482e-02  4.3882936586889749e-02  5.4362014878605515e-02  6.4804348634812742e-02  7.5217812363471470e-02  8.6015051780442359e-02  9.6615480502475273e-02  1.0716380798308606e-01  1.1807841891204958e-01  1.2891991483441287e-01  1.3966595221881056e-01  1.5055732943529515e-01  1.6131125875358135e-01  1.7211094768109422e-01  1.8286496095199611e-01  1.9358417294683106e-01  2.0410982408888970e-01  2.1465825403893202e-01  2.2515339002764914e-01  2.3558631694994983e-01  2.4595080334287528e-01  2.5635807138098188e-01  2.6666545751385012e-01  2.7692759611209722e-01  2.8721841954159077e-01  5.7349014610784607e-03  1.2027865105384760e-02  1.9286135379976921e-02  2.8283142582865066e-02  3.7767231968114136e-02  4.7467294733581973e-02  5.7820225421347307e-02  6.8161644001948019e-02  7.8513418845659613e-02  8.9074848833804982e-02  9.9581272862640638e-02  1.1008230105907446e-01  1.2084267405520353e-01  1.3158697284666335e-01  1.4221883643364663e-01  1.5292908576382566e-01  1.6365217539526722e-01  1.7434921176931395e-01  1.8500760574804059e-01  1.9556810181784470e-01  2.0606115522851032e-01  2.1651668233700663e-01  2.2689268780167074e-01  2.3723130660438121e-01  2.4758585750853157e-01  2.5784141496309904e-01  2.6807841013852762e-01  2.7836556890816450e-01  2.8856186877870832e-01  5.8455228192993564e-03  1.1895050021029578e-02  1.9367115468611459e-02  2.8293744146129087e-02  3.7711975984280367e-02  4.7389567261650875e-02  5.7619362658156502e-02  6.7961668655953142e-02  7.8341789000774528e-02  8.8953131115844727e-02  9.9417696241092021e-02  1.0990253244672907e-01  1.2057911149675947e-01  1.3121563885263965e-01  1.4174992185564617e-01  1.5238708972908319e-01  1.6303520682583830e-01  1.7364356121978727e-01  1.8425480912247322e-01  1.9477314011790273e-01  2.0530928696184450e-01  2.1573304768060725e-01  2.2607625251275162e-01  2.3631146643073592e-01  2.4648117987054580e-01  2.5657009164366862e-01  2.6661744103600427e-01  2.7673925611460060e-01  2.8677810479332738e-01  2.8593407567603008e-03  8.0639492228994393e-03  1.5034079617600572e-02  2.4334821477779957e-02  3.3920549032550720e-02  4.3587660493481180e-02  5.4099676575834026e-02  6.4553582035037860e-02  7.4992267551266978e-02  8.5803439860962574e-02  9.6416361395237973e-02  1.0696325898476189e-01  1.1780714746430626e-01  1.2854537286066933e-01  1.3919567733483754e-01  1.5001413016854026e-01  1.6070031460187392e-01  1.7141958531377757e-01  1.8208860444707847e-01  1.9277514748741431e-01  2.0335149642578432e-01  2.1393775987419364e-01  2.2435201608989358e-01  2.3469026004107421e-01  2.4488508022796093e-01  2.5511403515520120e-01  2.6523255692762754e-01  2.7531848933632674e-01  2.8547305523418126e-01  4.1765091146176801e-03  1.0098770777390279e-02  1.7113009484420398e-02  2.4917614450069670e-02  3.3144642508837412e-02  4.1841787852919171e-02  5.0885729844400131e-02  6.0207743881662820e-02  6.9818174789785720e-02  7.9624205077806751e-02  8.9639740219647684e-02  9.9786300409181766e-02  1.1004671642660083e-01  1.2026193689437616e-01  1.3066881370515249e-01  1.4108388348746398e-01  1.5152283251911255e-01  1.6200069057176145e-01  1.7237411794162669e-01  1.8273150043203931e-01  1.9305641785847683e-01  2.0333585227439771e-01  2.1346261560494828e-01  2.2346327095012275e-01  2.3333484900667620e-01  2.4317720535533122e-01  2.5285182139508816e-01  2.6236691705700477e-01  2.7184800656820773e-01  4.3277071984638461e-03  1.0326610154260441e-02  1.7218670047247833e-02  2.5117929541616693e-02  3.3375610012643130e-02  4.2156015751275554e-02  5.1231548499132598e-02  6.0631266007047324e-02  7.0224257960422226e-02  8.0062364440300349e-02  9.0147021079292927e-02  1.0034496752492629e-01  1.1060108580743344e-01  1.2076284608703157e-01  1.3114191936009292e-01  1.4156944939531454e-01  1.5203484152013805e-01  1.6242846944358647e-01  1.7282332346463469e-01  1.8321858380892220e-01  1.9355715183963473e-01  2.0393640295146279e-01  2.1404875412690380e-01  2.2406034446206860e-01  2.3398214083908725e-01  2.4369537600287439e-01  2.5346394831773156e-01  2.6290018973373741e-01  2.7230304548009843e-01  3.1031571167983722e-03  8.7296997832469591e-03  1.6051640222507591e-02  2.5346058402501020e-02  3.5147019133761052e-02  4.5022846438191995e-02  5.5796860837609361e-02  6.6439887289202318e-02  7.7082393255743495e-02  8.8065410343716011e-02  9.8791599873181965e-02  1.0934493958767041e-01  1.2010819919339009e-01  1.3068286136481469e-01  1.4112773076935348e-01  1.5175962221343453e-01  1.6231110264051335e-01  1.7302159558995539e-01  1.8365586394553596e-01  1.9440137561536902e-01  2.0495552245745088e-01  2.1546709272408460e-01  2.2591611253489849e-01  2.3622517853458103e-01  2.4642584572130030e-01  2.5662255021199210e-01  2.6691185662909350e-01  2.7711010581387402e-01  2.8727499703289200e-01  5.0682370747656327e-06  6.5160535330518622e-06  1.0471383347185738e-05  1.1495961460111034e-05  -3.9909893640166234e-06  1.0225619644593167e-05  2.0600067135420323e-06  1.1200011846044882e-06  5.6358169612280335e-07  1.4192725124557240e-06  1.6805853931511055e-06  1.5055429177586643e-06  2.4777447426872063e-02  1.0436701157275578e-01  5.9415049682581558e-02  1.1907094437819912e-01  2.4494656979607957e-01  2.0312454023054707e-01  1.9299339156111978e-01  1.8246503672017353e-01  1.7225926564032701e-01  2.3621320766056708e-01  2.1240394152968575e-01  2.5633322913713036e-01  1.4643382283505552e-02  2.7766453150600090e-01  1.3060551996727130e-02  2.8271238298693219e-01  8.9756175496693881e-03  4.3592207223880916e-03  2.3496826361858996e-02  2.6841286384542657e-02  2.4071712957332383e-01  2.3199551666656335e-01  7.6486064357566497e-02  1.6687901216767617e-01  1.6583032902502073e-01  8.6752164042622121e-02  8.5305456616470751e-02  9.5886941396578620e-02  9.5505429765728622e-02  1.0572810491864731e-01  1.0534007467963824e-01  1.2754068465596105e-01  1.2692049081881049e-01  2.0377214652977543e-01  1.9680200352471058e-01  3.7831075261406007e-02  3.6231804848939467e-02  2.1983890221591812e-01  2.2030727930839220e-01  6.6501732286174411e-02  7.5229269724089290e-02  1.4718728069627759e-01  1.4611834449232206e-01  5.8252870392538965e-02  1.1697762867593287e-01  1.1666851622417310e-01  2.0831784009609264e-01  2.1267753546065252e-01  2.6503711744278297e-01  1.4941471958941624e-02  2.4714954602791098e-01  2.4172846728317682e-01  2.7391608716491372e-01  2.6863020190852077e-01  2.5254677921335755e-01  2.5361138102927017e-01  3.1638652905514354e-02  6.0597070968184423e-03  5.9943166093644534e-03  1.1656450521272595e-02  2.4768033610245949e-02  9.3578455483173655e-03  4.4688445645938973e-03  5.4610983358702936e-03  2.7130292544317691e-01  2.6825311465023138e-01  1.7108662703756057e-02  2.8217518226770621e-01  2.8294131864065863e-01  9.5103322092683368e-03  2.2732128273415378e-01  4.3466043274688622e-02  3.8604273595324159e-02  3.3872984218282845e-02  4.6141515485750191e-02  1.2361918351707710e-01  1.2242492015223501e-01  6.4410367172557617e-02  6.6445874973396366e-02  2.4121537482395183e-01  3.9390514093116828e-02  2.3355138449749085e-01  5.7162179871172843e-02  2.3204515661349609e-01  6.7896955658585750e-02  6.6923410755024670e-02  2.2197882979864758e-01  1.8473792514816673e-01  1.7355079672267565e-01  1.7311110685783404e-01  8.8427134316536538e-02  8.9575978162720407e-02  1.0130718697713198e-01  1.0122917716756279e-01  1.2948768990404003e-01  1.2857350134223305e-01  1.0557002691566154e-01  1.0546504262193418e-01  1.7379523601205485e-01  1.7220916136540543e-01  8.7123979274636457e-02  8.7575437581125654e-02  1.9410587502122972e-01  1.9214162375041044e-01  1.8434901319601402e-01  1.8258682269008947e-01  7.8202116708644159e-02  7.8927902948942960e-02  1.6383533920127344e-01  1.6238682922185740e-01  5.7896396052435135e-02  7.6790902212355447e-02  1.5928025017155928e-01  1.6314726207401381e-01  1.3935381740163494e-01  1.3831101518336680e-01  1.3522872031584546e-01  1.3411655581372145e-01  1.5165973861093371e-01  1.5035059612591956e-01  1.1158727297839781e-01  1.1131736311659622e-01  1.4166391421616531e-01  1.4411701794096934e-01  2.0705980955708692e-01  5.6212720091704797e-02  2.1215149306192360e-01  2.2294389424372527e-01  5.7397342542451227e-02  3.8762348713717427e-02  2.3413426647549970e-01  2.7959674056898309e-01  2.6442938693889584e-01  4.6018555568501700e-02  2.7944392693110948e-01  2.5174952166973719e-01  1.1834068223673447e-02  2.7639199513179336e-01  2.4089907277417300e-01  2.5767822014348801e-01  6.3174489474162165e-03  2.8814646972881353e-01  2.4794864342718351e-01  2.9161621054250551e-02  2.5011408475167340e-01  1.9695716324110480e-02  2.5115167413515282e-01  4.3506167166859639e-03  1.9530043331569193e-02  2.4958862966138834e-01  2.4177885922812009e-01  2.7163886453021152e-01  2.5586786286795221e-01  2.4265461299453678e-01  4.8515162275755329e-02  2.6184668350044760e-01  1.6626976014839298e-02  2.3060507790193385e-01  2.9594951908057023e-02  3.2160123592756183e-02  7.0585083645233179e-02  2.6094347855661565e-01  2.0728313647636911e-02  1.9225207463471658e-02  2.6071860722520557e-01  4.6937386913412406e-03  2.7598678765036366e-01  2.3843582820726048e-01  9.4094671040893217e-03  6.0291667103372470e-02  2.2952128874679067e-01  2.2055525293894548e-01  2.3561570947945673e-01  2.1559692678427991e-01  2.8684216489790887e-01  4.8550664728812698e-02  4.1374637206762564e-02  3.1488883888411680e-02  1.6897692552795143e-01  1.6966029450368295e-01  2.4157122563953712e-01  6.3755504318622411e-02  1.9153979163172755e-01  1.8938808248722641e-01  5.2969294851720153e-02  2.2525711872614979e-01  1.9630944367522735e-01  7.2142047578920510e-02  1.4789856004280696e-01  1.4649499670568153e-01  2.2447101319384763e-01  1.5947163936060771e-01  1.5785313224135791e-01  7.4195298855119121e-02  6.2410599675798428e-02  1.8720720387776013e-01  1.8621221828276352e-01  1.3039552172185634e-01  1.7906751181795499e-01  1.8104556194079863e-01  1.2616405441240200e-01  1.2532218291689243e-01  8.4768565295095091e-02  8.4673603467004421e-02  1.1499446884065970e-01  1.1444346016840183e-01  1.9102279053571675e-01  9.5878932704454092e-02  9.5914063945748529e-02  2.1930552665456021e-01  2.1065050355064652e-01  4.8732801403512771e-02  1.3312987574542209e-01  1.3964618545648844e-01  1.7846669977080457e-01  1.7799771504893452e-01  2.2275928836520781e-01  9.5795853014784105e-02  9.4136669169022164e-02  8.0004506912066009e-02  8.2021106597058982e-02  1.5767831034615107e-01  1.5857150137923462e-01  5.5059335898919336e-02  1.7761035024548016e-01  1.7664148693020876e-01  1.8888552946560122e-01  1.8832066230505837e-01  1.8657570273267743e-01  2.5073024470191491e-01  1.0627866225392094e-01  1.0592757402506077e-01  2.7064261302573706e-01  6.7519359525098660e-02  2.1669633004896111e-01  6.5792782967264304e-02  2.4326779894477921e-01  1.5034089459997194e-01  2.1252290244220867e-01  1.6700567849601272e-01  1.6856950651981689e-01  1.0625146051916341e-01  1.0596024483704237e-01  1.2801458526727577e-01  1.2721543770598498e-01  2.0971681426033484e-01  5.1789877289248505e-02  2.9966042508453659e-02  1.9796073107018347e-01  2.4775365721823656e-01  2.5847045217847386e-01  5.5284703615219637e-02  4.6409765591100887e-03  2.2027944634285515e-01  8.1659816429332288e-02  2.5840207718413538e-01  5.3348860620743739e-02  8.2758160648644538e-02  1.7646931690044040e-01  1.8214784890074148e-01  2.2657846237907585e-02  4.8637155012798187e-02  9.3434746779105987e-02  9.6868797921494262e-02  4.7963596021917708e-02  2.1539327319274520e-01  1.3594127526792724e-01  1.3707795453897115e-01  7.2781058372132459e-02  2.2064117511667186e-01  2.1493303711869463e-01  1.6855229293524895e-01  1.7032796045805604e-01  2.2968155119651151e-01  2.7232834551689067e-01  1.6213971131975455e-01  1.5587044359010380e-01  1.4612627078847301e-01  1.4504055238935379e-01  2.0173885107022502e-01  1.5558794641505272e-01  1.5443076834910158e-01  2.0066903066674210e-01  1.9741034750494454e-01  1.1794945112148550e-01  1.1742179518147325e-01  2.6262298574032533e-01  2.3144369755496674e-01  7.3437918068842187e-02  1.5106849514468743e-01  1.5124918074982951e-01  4.0896388478266814e-02  1.3602459553445481e-01  1.3721734857177045e-01  1.9943809513059227e-01  1.9872010954994584e-01  6.2141280943069047e-02  6.8305990231218125e-02  1.2653847421640130e-01  1.4298854058852220e-01  7.4274630994256560e-02  1.1144035874321412e-01  6.6014183298823401e-02  1.9249233037492855e-01  2.6595681130898047e-01  8.7624683477026566e-02  2.0532085983509005e-01  2.2431446005299088e-01  2.8275481918281026e-02  2.4085575123813641e-02  8.0482175335384085e-02  1.6190676753178593e-02  4.4496348432240394e-02  4.1151617332805630e-03  1.2257440487506934e-02  1.8479804634681067e-02  2.6482808734378410e-01  2.5326376204024964e-01  2.7378011001846564e-01  4.9959140991272806e-02  3.9303559922040890e-02  2.5562089210849716e-02  2.6046240179498314e-01  2.7569624189941827e-01  2.8466549510636791e-01  2.9308381291009122e-01  6.2939589655068462e-02  2.6660982005979084e-01  2.5615636434907713e-01  2.1391822557147708e-01  2.0322098319116541e-01  1.9244669649981910e-01  1.8161852252928420e-01  2.8718886435818181e-01  2.7695685290598127e-01  2.4562406153173971e-01  2.3508953381435066e-01  2.2453940229696281e-01  1.7077844038146345e-01  1.5995731962372456e-01  2.9736359400375689e-01  1.4918022677875128e-01  9.5269032140232204e-02  3.1692840295580921e-02  6.9355850227462018e-03  1.2757273329678634e-01  1.2119670152398862e-02  5.4440410014450345e-02  1.1892377630650039e-01  7.154224620